# vtk DataFile Version 3.0
#This file was generated by the deal.II library on 2020/5/26 at 22:12:14
ASCII
DATASET UNSTRUCTURED_GRID

POINTS 4096 double
0 0 0
0.03125 0 0
0 0.03125 0
0.03125 0.03125 0
0.03125 0 0
0.0625 0 0
0.03125 0.03125 0
0.0625 0.03125 0
0.0625 0 0
0.09375 0 0
0.0625 0.03125 0
0.09375 0.03125 0
0.09375 0 0
0.125 0 0
0.09375 0.03125 0
0.125 0.03125 0
0.125 0 0
0.15625 0 0
0.125 0.03125 0
0.15625 0.03125 0
0.15625 0 0
0.1875 0 0
0.15625 0.03125 0
0.1875 0.03125 0
0.1875 0 0
0.21875 0 0
0.1875 0.03125 0
0.21875 0.03125 0
0.21875 0 0
0.25 0 0
0.21875 0.03125 0
0.25 0.03125 0
0.25 0 0
0.28125 0 0
0.25 0.03125 0
0.28125 0.03125 0
0.28125 0 0
0.3125 0 0
0.28125 0.03125 0
0.3125 0.03125 0
0.3125 0 0
0.34375 0 0
0.3125 0.03125 0
0.34375 0.03125 0
0.34375 0 0
0.375 0 0
0.34375 0.03125 0
0.375 0.03125 0
0.375 0 0
0.40625 0 0
0.375 0.03125 0
0.40625 0.03125 0
0.40625 0 0
0.4375 0 0
0.40625 0.03125 0
0.4375 0.03125 0
0.4375 0 0
0.46875 0 0
0.4375 0.03125 0
0.46875 0.03125 0
0.46875 0 0
0.5 0 0
0.46875 0.03125 0
0.5 0.03125 0
0.5 0 0
0.53125 0 0
0.5 0.03125 0
0.53125 0.03125 0
0.53125 0 0
0.5625 0 0
0.53125 0.03125 0
0.5625 0.03125 0
0.5625 0 0
0.59375 0 0
0.5625 0.03125 0
0.59375 0.03125 0
0.59375 0 0
0.625 0 0
0.59375 0.03125 0
0.625 0.03125 0
0.625 0 0
0.65625 0 0
0.625 0.03125 0
0.65625 0.03125 0
0.65625 0 0
0.6875 0 0
0.65625 0.03125 0
0.6875 0.03125 0
0.6875 0 0
0.71875 0 0
0.6875 0.03125 0
0.71875 0.03125 0
0.71875 0 0
0.75 0 0
0.71875 0.03125 0
0.75 0.03125 0
0.75 0 0
0.78125 0 0
0.75 0.03125 0
0.78125 0.03125 0
0.78125 0 0
0.8125 0 0
0.78125 0.03125 0
0.8125 0.03125 0
0.8125 0 0
0.84375 0 0
0.8125 0.03125 0
0.84375 0.03125 0
0.84375 0 0
0.875 0 0
0.84375 0.03125 0
0.875 0.03125 0
0.875 0 0
0.90625 0 0
0.875 0.03125 0
0.90625 0.03125 0
0.90625 0 0
0.9375 0 0
0.90625 0.03125 0
0.9375 0.03125 0
0.9375 0 0
0.96875 0 0
0.9375 0.03125 0
0.96875 0.03125 0
0.96875 0 0
1 0 0
0.96875 0.03125 0
1 0.03125 0
0 0.03125 0
0.03125 0.03125 0
0 0.0625 0
0.03125 0.0625 0
0.03125 0.03125 0
0.0625 0.03125 0
0.03125 0.0625 0
0.0625 0.0625 0
0.0625 0.03125 0
0.09375 0.03125 0
0.0625 0.0625 0
0.09375 0.0625 0
0.09375 0.03125 0
0.125 0.03125 0
0.09375 0.0625 0
0.125 0.0625 0
0.125 0.03125 0
0.15625 0.03125 0
0.125 0.0625 0
0.15625 0.0625 0
0.15625 0.03125 0
0.1875 0.03125 0
0.15625 0.0625 0
0.1875 0.0625 0
0.1875 0.03125 0
0.21875 0.03125 0
0.1875 0.0625 0
0.21875 0.0625 0
0.21875 0.03125 0
0.25 0.03125 0
0.21875 0.0625 0
0.25 0.0625 0
0.25 0.03125 0
0.28125 0.03125 0
0.25 0.0625 0
0.28125 0.0625 0
0.28125 0.03125 0
0.3125 0.03125 0
0.28125 0.0625 0
0.3125 0.0625 0
0.3125 0.03125 0
0.34375 0.03125 0
0.3125 0.0625 0
0.34375 0.0625 0
0.34375 0.03125 0
0.375 0.03125 0
0.34375 0.0625 0
0.375 0.0625 0
0.375 0.03125 0
0.40625 0.03125 0
0.375 0.0625 0
0.40625 0.0625 0
0.40625 0.03125 0
0.4375 0.03125 0
0.40625 0.0625 0
0.4375 0.0625 0
0.4375 0.03125 0
0.46875 0.03125 0
0.4375 0.0625 0
0.46875 0.0625 0
0.46875 0.03125 0
0.5 0.03125 0
0.46875 0.0625 0
0.5 0.0625 0
0.5 0.03125 0
0.53125 0.03125 0
0.5 0.0625 0
0.53125 0.0625 0
0.53125 0.03125 0
0.5625 0.03125 0
0.53125 0.0625 0
0.5625 0.0625 0
0.5625 0.03125 0
0.59375 0.03125 0
0.5625 0.0625 0
0.59375 0.0625 0
0.59375 0.03125 0
0.625 0.03125 0
0.59375 0.0625 0
0.625 0.0625 0
0.625 0.03125 0
0.65625 0.03125 0
0.625 0.0625 0
0.65625 0.0625 0
0.65625 0.03125 0
0.6875 0.03125 0
0.65625 0.0625 0
0.6875 0.0625 0
0.6875 0.03125 0
0.71875 0.03125 0
0.6875 0.0625 0
0.71875 0.0625 0
0.71875 0.03125 0
0.75 0.03125 0
0.71875 0.0625 0
0.75 0.0625 0
0.75 0.03125 0
0.78125 0.03125 0
0.75 0.0625 0
0.78125 0.0625 0
0.78125 0.03125 0
0.8125 0.03125 0
0.78125 0.0625 0
0.8125 0.0625 0
0.8125 0.03125 0
0.84375 0.03125 0
0.8125 0.0625 0
0.84375 0.0625 0
0.84375 0.03125 0
0.875 0.03125 0
0.84375 0.0625 0
0.875 0.0625 0
0.875 0.03125 0
0.90625 0.03125 0
0.875 0.0625 0
0.90625 0.0625 0
0.90625 0.03125 0
0.9375 0.03125 0
0.90625 0.0625 0
0.9375 0.0625 0
0.9375 0.03125 0
0.96875 0.03125 0
0.9375 0.0625 0
0.96875 0.0625 0
0.96875 0.03125 0
1 0.03125 0
0.96875 0.0625 0
1 0.0625 0
0 0.0625 0
0.03125 0.0625 0
0 0.09375 0
0.03125 0.09375 0
0.03125 0.0625 0
0.0625 0.0625 0
0.03125 0.09375 0
0.0625 0.09375 0
0.0625 0.0625 0
0.09375 0.0625 0
0.0625 0.09375 0
0.09375 0.09375 0
0.09375 0.0625 0
0.125 0.0625 0
0.09375 0.09375 0
0.125 0.09375 0
0.125 0.0625 0
0.15625 0.0625 0
0.125 0.09375 0
0.15625 0.09375 0
0.15625 0.0625 0
0.1875 0.0625 0
0.15625 0.09375 0
0.1875 0.09375 0
0.1875 0.0625 0
0.21875 0.0625 0
0.1875 0.09375 0
0.21875 0.09375 0
0.21875 0.0625 0
0.25 0.0625 0
0.21875 0.09375 0
0.25 0.09375 0
0.25 0.0625 0
0.28125 0.0625 0
0.25 0.09375 0
0.28125 0.09375 0
0.28125 0.0625 0
0.3125 0.0625 0
0.28125 0.09375 0
0.3125 0.09375 0
0.3125 0.0625 0
0.34375 0.0625 0
0.3125 0.09375 0
0.34375 0.09375 0
0.34375 0.0625 0
0.375 0.0625 0
0.34375 0.09375 0
0.375 0.09375 0
0.375 0.0625 0
0.40625 0.0625 0
0.375 0.09375 0
0.40625 0.09375 0
0.40625 0.0625 0
0.4375 0.0625 0
0.40625 0.09375 0
0.4375 0.09375 0
0.4375 0.0625 0
0.46875 0.0625 0
0.4375 0.09375 0
0.46875 0.09375 0
0.46875 0.0625 0
0.5 0.0625 0
0.46875 0.09375 0
0.5 0.09375 0
0.5 0.0625 0
0.53125 0.0625 0
0.5 0.09375 0
0.53125 0.09375 0
0.53125 0.0625 0
0.5625 0.0625 0
0.53125 0.09375 0
0.5625 0.09375 0
0.5625 0.0625 0
0.59375 0.0625 0
0.5625 0.09375 0
0.59375 0.09375 0
0.59375 0.0625 0
0.625 0.0625 0
0.59375 0.09375 0
0.625 0.09375 0
0.625 0.0625 0
0.65625 0.0625 0
0.625 0.09375 0
0.65625 0.09375 0
0.65625 0.0625 0
0.6875 0.0625 0
0.65625 0.09375 0
0.6875 0.09375 0
0.6875 0.0625 0
0.71875 0.0625 0
0.6875 0.09375 0
0.71875 0.09375 0
0.71875 0.0625 0
0.75 0.0625 0
0.71875 0.09375 0
0.75 0.09375 0
0.75 0.0625 0
0.78125 0.0625 0
0.75 0.09375 0
0.78125 0.09375 0
0.78125 0.0625 0
0.8125 0.0625 0
0.78125 0.09375 0
0.8125 0.09375 0
0.8125 0.0625 0
0.84375 0.0625 0
0.8125 0.09375 0
0.84375 0.09375 0
0.84375 0.0625 0
0.875 0.0625 0
0.84375 0.09375 0
0.875 0.09375 0
0.875 0.0625 0
0.90625 0.0625 0
0.875 0.09375 0
0.90625 0.09375 0
0.90625 0.0625 0
0.9375 0.0625 0
0.90625 0.09375 0
0.9375 0.09375 0
0.9375 0.0625 0
0.96875 0.0625 0
0.9375 0.09375 0
0.96875 0.09375 0
0.96875 0.0625 0
1 0.0625 0
0.96875 0.09375 0
1 0.09375 0
0 0.09375 0
0.03125 0.09375 0
0 0.125 0
0.03125 0.125 0
0.03125 0.09375 0
0.0625 0.09375 0
0.03125 0.125 0
0.0625 0.125 0
0.0625 0.09375 0
0.09375 0.09375 0
0.0625 0.125 0
0.09375 0.125 0
0.09375 0.09375 0
0.125 0.09375 0
0.09375 0.125 0
0.125 0.125 0
0.125 0.09375 0
0.15625 0.09375 0
0.125 0.125 0
0.15625 0.125 0
0.15625 0.09375 0
0.1875 0.09375 0
0.15625 0.125 0
0.1875 0.125 0
0.1875 0.09375 0
0.21875 0.09375 0
0.1875 0.125 0
0.21875 0.125 0
0.21875 0.09375 0
0.25 0.09375 0
0.21875 0.125 0
0.25 0.125 0
0.25 0.09375 0
0.28125 0.09375 0
0.25 0.125 0
0.28125 0.125 0
0.28125 0.09375 0
0.3125 0.09375 0
0.28125 0.125 0
0.3125 0.125 0
0.3125 0.09375 0
0.34375 0.09375 0
0.3125 0.125 0
0.34375 0.125 0
0.34375 0.09375 0
0.375 0.09375 0
0.34375 0.125 0
0.375 0.125 0
0.375 0.09375 0
0.40625 0.09375 0
0.375 0.125 0
0.40625 0.125 0
0.40625 0.09375 0
0.4375 0.09375 0
0.40625 0.125 0
0.4375 0.125 0
0.4375 0.09375 0
0.46875 0.09375 0
0.4375 0.125 0
0.46875 0.125 0
0.46875 0.09375 0
0.5 0.09375 0
0.46875 0.125 0
0.5 0.125 0
0.5 0.09375 0
0.53125 0.09375 0
0.5 0.125 0
0.53125 0.125 0
0.53125 0.09375 0
0.5625 0.09375 0
0.53125 0.125 0
0.5625 0.125 0
0.5625 0.09375 0
0.59375 0.09375 0
0.5625 0.125 0
0.59375 0.125 0
0.59375 0.09375 0
0.625 0.09375 0
0.59375 0.125 0
0.625 0.125 0
0.625 0.09375 0
0.65625 0.09375 0
0.625 0.125 0
0.65625 0.125 0
0.65625 0.09375 0
0.6875 0.09375 0
0.65625 0.125 0
0.6875 0.125 0
0.6875 0.09375 0
0.71875 0.09375 0
0.6875 0.125 0
0.71875 0.125 0
0.71875 0.09375 0
0.75 0.09375 0
0.71875 0.125 0
0.75 0.125 0
0.75 0.09375 0
0.78125 0.09375 0
0.75 0.125 0
0.78125 0.125 0
0.78125 0.09375 0
0.8125 0.09375 0
0.78125 0.125 0
0.8125 0.125 0
0.8125 0.09375 0
0.84375 0.09375 0
0.8125 0.125 0
0.84375 0.125 0
0.84375 0.09375 0
0.875 0.09375 0
0.84375 0.125 0
0.875 0.125 0
0.875 0.09375 0
0.90625 0.09375 0
0.875 0.125 0
0.90625 0.125 0
0.90625 0.09375 0
0.9375 0.09375 0
0.90625 0.125 0
0.9375 0.125 0
0.9375 0.09375 0
0.96875 0.09375 0
0.9375 0.125 0
0.96875 0.125 0
0.96875 0.09375 0
1 0.09375 0
0.96875 0.125 0
1 0.125 0
0 0.125 0
0.03125 0.125 0
0 0.15625 0
0.03125 0.15625 0
0.03125 0.125 0
0.0625 0.125 0
0.03125 0.15625 0
0.0625 0.15625 0
0.0625 0.125 0
0.09375 0.125 0
0.0625 0.15625 0
0.09375 0.15625 0
0.09375 0.125 0
0.125 0.125 0
0.09375 0.15625 0
0.125 0.15625 0
0.125 0.125 0
0.15625 0.125 0
0.125 0.15625 0
0.15625 0.15625 0
0.15625 0.125 0
0.1875 0.125 0
0.15625 0.15625 0
0.1875 0.15625 0
0.1875 0.125 0
0.21875 0.125 0
0.1875 0.15625 0
0.21875 0.15625 0
0.21875 0.125 0
0.25 0.125 0
0.21875 0.15625 0
0.25 0.15625 0
0.25 0.125 0
0.28125 0.125 0
0.25 0.15625 0
0.28125 0.15625 0
0.28125 0.125 0
0.3125 0.125 0
0.28125 0.15625 0
0.3125 0.15625 0
0.3125 0.125 0
0.34375 0.125 0
0.3125 0.15625 0
0.34375 0.15625 0
0.34375 0.125 0
0.375 0.125 0
0.34375 0.15625 0
0.375 0.15625 0
0.375 0.125 0
0.40625 0.125 0
0.375 0.15625 0
0.40625 0.15625 0
0.40625 0.125 0
0.4375 0.125 0
0.40625 0.15625 0
0.4375 0.15625 0
0.4375 0.125 0
0.46875 0.125 0
0.4375 0.15625 0
0.46875 0.15625 0
0.46875 0.125 0
0.5 0.125 0
0.46875 0.15625 0
0.5 0.15625 0
0.5 0.125 0
0.53125 0.125 0
0.5 0.15625 0
0.53125 0.15625 0
0.53125 0.125 0
0.5625 0.125 0
0.53125 0.15625 0
0.5625 0.15625 0
0.5625 0.125 0
0.59375 0.125 0
0.5625 0.15625 0
0.59375 0.15625 0
0.59375 0.125 0
0.625 0.125 0
0.59375 0.15625 0
0.625 0.15625 0
0.625 0.125 0
0.65625 0.125 0
0.625 0.15625 0
0.65625 0.15625 0
0.65625 0.125 0
0.6875 0.125 0
0.65625 0.15625 0
0.6875 0.15625 0
0.6875 0.125 0
0.71875 0.125 0
0.6875 0.15625 0
0.71875 0.15625 0
0.71875 0.125 0
0.75 0.125 0
0.71875 0.15625 0
0.75 0.15625 0
0.75 0.125 0
0.78125 0.125 0
0.75 0.15625 0
0.78125 0.15625 0
0.78125 0.125 0
0.8125 0.125 0
0.78125 0.15625 0
0.8125 0.15625 0
0.8125 0.125 0
0.84375 0.125 0
0.8125 0.15625 0
0.84375 0.15625 0
0.84375 0.125 0
0.875 0.125 0
0.84375 0.15625 0
[...]
POINT_DATA 4096
SCALARS solution double 1
LOOKUP_TABLE default
0 0.125 0 0.122924 0.125 0.189465 0.122924 0.188288 0.189465 0.241648 0.188288 0.240865 0.241648 0.287175 0.240865 0.286596 0.287175 0.328316 0.286596 0.327861 0.328316 0.366269 0.327861 0.365897 0.366269 0.401762 0.365897 0.40145 0.401762 0.435275 0.40145 0.435009 0.435275 0.467149 0.435009 0.466919 0.467149 0.497634 0.466919 0.497433 0.497634 0.526921 0.497433 0.526745 0.526921 0.555161 0.526745 0.555005 0.555161 0.582473 0.555005 0.582336 0.582473 0.608957 0.582336 0.608835 0.608957 0.634695 0.608835 0.634586 0.634695 0.659754 0.634586 0.659657 0.659754 0.684194 0.659657 0.684108 0.684194 0.708066 0.684108 0.707989 0.708066 0.731412 0.707989 0.731344 0.731412 0.754272 0.731344 0.754212 0.754272 0.776679 0.754212 0.776626 0.776679 0.798663 0.776626 0.798616 0.798663 0.820251 0.798616 0.82021 0.820251 0.841466 0.82021 0.841431 0.841466 0.862331 0.841431 0.862301 0.862331 0.882864 0.862301 0.882839 0.882864 0.903084 0.882839 0.903064 0.903084 0.923007 0.903064 0.92299 0.923007 0.942646 0.92299 0.942634 0.942646 0.962017 0.942634 0.962009 0.962017 0.981131 0.962009 0.981127 0.981131 1 0.981127 1 0 0.122924 0 0.122314 0.122924 0.188288 0.122314 0.187558 0.188288 0.240865 0.187558 0.240243 0.240865 0.286596 0.240243 0.286088 0.286596 0.327861 0.286088 0.327443 0.327861 0.365897 0.327443 0.365547 0.365897 0.40145 0.365547 0.401152 0.40145 0.435009 0.401152 0.434753 0.435009 0.466919 0.434753 0.466696 0.466919 0.497433 0.466696 0.497238 0.497433 0.526745 0.497238 0.526573 0.526745 0.555005 0.526573 0.554853 0.555005 0.582336 0.554853 0.5822 0.582336 0.608835 0.5822 0.608715 0.608835 0.634586 0.608715 0.634479 0.634586 0.659657 0.634479 0.659562 0.659657 0.684108 0.659562 0.684023 0.684108 0.707989 0.684023 0.707913 0.707989 0.731344 0.707913 0.731277 0.731344 0.754212 0.731277 0.754152 0.754212 0.776626 0.754152 0.776573 0.776626 0.798616 0.776573 0.79857 0.798616 0.82021 0.79857 0.82017 0.82021 0.841431 0.82017 0.841396 0.841431 0.862301 0.841396 0.862271 0.862301 0.882839 0.862271 0.882814 0.882839 0.903064 0.882814 0.903043 0.903064 0.92299 0.903043 0.922974 0.92299 0.942634 0.922974 0.942622 0.942634 0.962009 0.942622 0.962001 0.962009 0.981127 0.962001 0.981123 0.981127 1 0.981123 1 0 0.122314 0 0.12203 0.122314 0.187558 0.12203 0.187129 0.187558 0.240243 0.187129 0.239798 0.240243 0.286088 0.239798 0.285681 0.286088 0.327443 0.285681 0.327084 0.327443 0.365547 0.327084 0.365234 0.365547 0.401152 0.365234 0.400879 0.401152 0.434753 0.400879 0.434513 0.434753 0.466696 0.434513 0.466485 0.466696 0.497238 0.466485 0.497052 0.497238 0.526573 0.497052 0.526408 0.526573 0.554853 0.526408 0.554706 0.554853 0.5822 0.554706 0.582069 0.5822 0.608715 0.582069 0.608598 0.608715 0.634479 0.608598 0.634374 0.634479 0.659562 0.634374 0.659469 0.659562 0.684023 0.659469 0.68394 0.684023 0.707913 0.68394 0.707839 0.707913 0.731277 0.707839 0.731211 0.731277 0.754152 0.731211 0.754094 0.754152 0.776573 0.754094 0.776521 0.776573 0.79857 0.776521 0.798525 0.79857 0.82017 0.798525 0.82013 0.82017 0.841396 0.82013 0.841362 0.841396 0.862271 0.841362 0.862242 0.862271 0.882814 0.862242 0.88279 0.882814 0.903043 0.88279 0.903023 0.903043 0.922974 0.903023 0.922958 0.922974 0.942622 0.922958 0.942611 0.942622 0.962001 0.942611 0.961993 0.962001 0.981123 0.961993 0.981119 0.981123 1 0.981119 1 0 0.12203 0 0.121868 0.12203 0.187129 0.121868 0.18686 0.187129 0.239798 0.18686 0.239485 0.239798 0.285681 0.239485 0.285366 0.285681 0.327084 0.285366 0.326788 0.327084 0.365234 0.326788 0.364964 0.365234 0.400879 0.364964 0.400636 0.400879 0.434513 0.400636 0.434295 0.434513 0.466485 0.434295 0.466291 0.466485 0.497052 0.466291 0.496878 0.497052 0.526408 0.496878 0.526252 0.526408 0.554706 0.526252 0.554567 0.554706 0.582069 0.554567 0.581945 0.582069 0.608598 0.581945 0.608486 0.608598 0.634374 0.608486 0.634275 0.634374 0.659469 0.634275 0.659379 0.659469 0.68394 0.659379 0.68386 0.68394 0.707839 0.68386 0.707768 0.707839 0.731211 0.707768 0.731147 0.731211 0.754094 0.731147 0.754037 0.754094 0.776521 0.754037 0.776472 0.776521 0.798525 0.776472 0.798481 0.798525 0.82013 0.798481 0.820092 0.82013 0.841362 0.820092 0.841329 0.841362 0.862242 0.841329 0.862214 0.862242 0.88279 0.862214 0.882766 0.88279 0.903023 0.882766 0.903004 0.903023 0.922958 0.903004 0.922943 0.922958 0.942611 0.922943 0.942599 0.942611 0.961993 0.942599 0.961986 0.961993 0.981119 0.961986 0.981116 0.981119 1 0.981116 1 0 0.121868 0 0.121767 0.121868 0.18686 0.121767 0.186681 0.18686 0.239485 0.186681 0.23926 0.239485 0.285366 0.23926 0.285125 0.285366 0.326788 0.285125 0.326549 0.326788 0.364964 0.326549 0.364737 0.364964 0.400636 0.364737 0.400425 0.400636 0.434295 0.400425 0.434102 0.434295 0.466291 0.434102 0.466115 0.466291 0.496878 0.466115 0.496719 0.496878 0.526252 0.496719 0.526109 0.526252 0.554567 0.526109 0.554438 0.554567 0.581945 0.554438 0.581828 0.581945 0.608486 0.581828 0.608382 0.608486 0.634275 0.608382 0.63418 0.634275 0.659379 0.63418 0.659295 0.659379 0.68386 0.659295 0.683784 0.68386 0.707768 0.683784 0.7077 0.707768 0.731147 0.7077 0.731087 0.731147 0.754037 0.731087 0.753983 0.754037 0.776472 0.753983 0.776424 0.776472 0.798481 0.776424 0.798439 0.798481 0.820092 0.798439 0.820055 0.820092 0.841329 0.820055 0.841297 0.841329 0.862214 0.841297 0.862186 0.862214 0.882766 0.862186 0.882743 0.882766 0.903004 0.882743 0.902985 0.903004 0.922943 0.902985 0.922928 0.922943 0.942599 0.922928 0.942588 0.942599 0.961986 0.942588 0.961979 0.961986 0.981116 0.961979 0.981112 0.981116 1 0.981112 1 0 0.121767 0 0.121698 0.121767 0.186681 0.121698 0.186555 0.186681 0.23926 0.186555 0.239096 0.23926 0.285125 0.239096 0.28494 0.285125 0.326549 0.28494 0.326358 0.326549 0.364737 0.326358 0.364549 0.364737 0.400425 0.364549 0.400246 0.400425 0.434102 0.400246 0.433934 0.434102 0.466115 0.433934 0.46596 0.466115 0.496719 0.46596 0.496576 0.496719 0.526109 0.496576 0.525978 0.526109 0.554438 0.525978 0.554319 0.554438 0.581828 0.554319 0.581721 0.581828 0.608382 0.581721 0.608284 0.608382 0.63418 0.608284 0.634093 0.63418 0.659295 0.634093 0.659216 0.659295 0.683784 0.659216 0.683713 0.683784 0.7077 0.683713 0.707636 0.7077 0.731087 0.707636 0.73103 0.731087 0.753983 0.73103 0.753933 0.753983 0.776424 0.753933 0.776379 0.776424 0.798439 0.776379 0.798399 0.798439 0.820055 0.798399 0.820021 0.820055 0.841297 0.820021 0.841267 0.841297 0.862186 0.841267 0.862161 0.862186 0.882743 0.862161 0.882722 0.882743 0.902985 0.882722 0.902967 0.902985 0.922928 0.902967 0.922915 0.922928 0.942588 0.922915 0.942578 0.942588 0.961979 0.942578 0.961972 0.961979 0.981112 0.961972 0.981109 0.981112 1 0.981109 1 0 0.121698 0 0.121649 0.121698 0.186555 0.121649 0.186464 0.186555 0.239096 0.186464 0.238974 0.239096 0.28494 0.238974 0.284798 0.28494 0.326358 0.284798 0.326205 0.326358 0.364549 0.326205 0.364395 0.364549 0.400246 0.364395 0.400095 0.400246 0.433934 0.400095 0.43379 0.433934 0.46596 0.43379 0.465824 0.46596 0.496576 0.465824 0.49645 0.496576 0.525978 0.49645 0.525862 0.525978 0.554319 0.525862 0.554212 0.554319 0.581721 0.554212 0.581623 0.581721 0.608284 0.581623 0.608196 0.608284 0.634093 0.608196 0.634012 0.634093 0.659216 0.634012 0.659143 0.659216 0.683713 0.659143 0.683648 0.683713 0.707636 0.683648 0.707577 0.707636 0.73103 0.707577 0.730977 0.73103 0.753933 0.730977 0.753886 0.753933 0.776379 0.753886 0.776337 0.776379 0.798399 0.776337 0.798363 0.798399 0.820021 0.798363 0.819988 0.820021 0.841267 0.819988 0.841239 0.841267 0.862161 0.841239 0.862137 0.862161 0.882722 0.862137 0.882702 0.882722 0.902967 0.882702 0.902951 0.902967 0.922915 0.902951 0.922902 0.922915 0.942578 0.922902 0.942568 0.942578 0.961972 0.942568 0.961966 0.961972 0.981109 0.961966 0.981105 0.981109 1 0.981105 1 0 0.121649 0 0.121614 0.121649 0.186464 0.121614 0.186396 0.186464 0.238974 0.186396 0.23888 0.238974 0.284798 0.23888 0.284687 0.284798 0.326205 0.284687 0.326084 0.326205 0.364395 0.326084 0.364269 0.364395 0.400095 0.364269 0.399969 0.400095 0.43379 0.399969 0.433668 0.43379 0.465824 0.433668 0.465707 0.465824 0.49645 0.465707 0.49634 0.49645 0.525862 0.49634 0.525759 0.525862 0.554212 0.525759 0.554117 0.554212 0.581623 0.554117 0.581536 0.581623 0.608196 0.581536 0.608116 0.608196 0.634012 0.608116 0.633939 0.634012 0.659143 0.633939 0.659077 0.659143 0.683648 0.659077 0.683588 0.683648 0.707577 0.683588 0.707524 0.707577 0.730977 0.707524 0.730929 0.730977 0.753886 0.730929 0.753843 0.753886 0.776337 0.753843 0.776299 0.776337 0.798363 0.776299 0.798329 0.798363 0.819988 0.798329 0.819959 0.819988 0.841239 0.819959 0.841214 0.841239 0.862137 0.841214 0.862115 0.862137 0.882702 0.862115 0.882683 0.882702 0.902951 0.882683 0.902936 0.902951 0.922902 0.902936 0.92289 0.922902 0.942568 0.92289 0.94256 0.942568 0.961966 0.94256 0.96196 0.961966 0.981105 0.96196 0.981103 0.981105 1 0.981103 1 0 0.121614 0 0.121587 0.121614 0.186396 0.121587 0.186345 0.186396 0.23888 0.186345 0.238809 0.23888 0.284687 0.238809 0.2846 0.284687 0.326084 0.2846 0.325987 0.326084 0.364269 0.325987 0.364167 0.364269 0.399969 0.364167 0.399865 0.399969 0.433668 0.399865 0.433565 0.433668 0.465707 0.433565 0.465608 0.465707 0.49634 0.465608 0.496246 0.49634 0.525759 0.496246 0.525671 0.525759 0.554117 0.525671 0.554035 0.554117 0.581536 0.554035 0.58146 0.581536 0.608116 0.58146 0.608045 0.608116 0.633939 0.608045 0.633875 0.633939 0.659077 0.633875 0.659018 0.659077 0.683588 0.659018 0.683535 0.683588 0.707524 0.683535 0.707476 0.707524 0.730929 0.707476 0.730886 0.730929 0.753843 0.730886 0.753804 0.753843 0.776299 0.753804 0.776265 0.776299 0.798329 0.776265 0.798298 0.798329 0.819959 0.798298 0.819932 0.819959 0.841214 0.819932 0.84119 0.841214 0.862115 0.84119 0.862095 0.862115 0.882683 0.862095 0.882666 0.882683 0.902936 0.882666 0.902922 0.902936 0.92289 0.902922 0.922879 0.92289 0.94256 0.922879 0.942552 0.94256 0.96196 0.942552 0.961954 0.96196 0.981103 0.961954 0.9811 0.981103 1 0.9811 1 0 0.121587 0 0.121567 0.121587 0.186345 0.121567 0.186306 0.186345 0.238809 0.186306 0.238754 0.238809 0.2846 0.238754 0.284532 0.2846 0.325987 0.284532 0.325911 0.325987 0.364167 0.325911 0.364085 0.364167 0.399865 0.364085 0.399781 0.399865 0.433565 0.399781 0.433481 0.433565 0.465608 0.433481 0.465526 0.465608 0.496246 0.465526 0.496166 0.496246 0.525671 0.496166 0.525595 0.525671 0.554035 0.525595 0.553964 0.554035 0.58146 0.553964 0.581394 0.58146 0.608045 0.581394 0.607985 0.608045 0.633875 0.607985 0.633819 0.633875 0.659018 0.633819 0.658967 0.659018 0.683535 0.658967 0.683488 0.683535 0.707476 0.683488 0.707434 0.707476 0.730886 0.707434 0.730848 0.730886 0.753804 0.730848 0.75377 0.753804 0.776265 0.75377 0.776234 0.776265 0.798298 0.776234 0.798272 0.798298 0.819932 0.798272 0.819909 0.819932 0.84119 0.819909 0.84117 0.84119 0.862095 0.84117 0.862078 0.862095 0.882666 0.862078 0.882652 0.882666 0.902922 0.882652 0.90291 0.902922 0.922879 0.90291 0.922869 0.922879 0.942552 0.922869 0.942545 0.942552 0.961954 0.942545 0.96195 0.961954 0.9811 0.96195 0.981098 0.9811 1 0.981098 1 0 0.121567 0 0.121551 0.121567 0.186306 0.121551 0.186276 0.186306 0.238754 0.186276 0.238711 0.238754 0.284532 0.238711 0.28448 0.284532 0.325911 0.28448 0.32585 0.325911 0.364085 0.32585 0.364019 0.364085 0.399781 0.364019 0.399713 0.399781 0.433481 0.399713 0.433412 0.433481 0.465526 0.433412 0.465458 0.465526 0.496166 0.465458 0.496101 0.496166 0.525595 0.496101 0.525533 0.525595 0.553964 0.525533 0.553905 0.553964 0.581394 0.553905 0.581338 0.581394 0.607985 0.581338 0.607933 0.607985 0.633819 0.607933 0.633772 0.633819 0.658967 0.633772 0.658924 0.658967 0.683488 0.658924 0.683448 0.683488 0.707434 0.683448 0.707398 0.707434 0.730848 0.707398 0.730815 0.730848 0.75377 0.730815 0.753741 0.75377 0.776234 0.753741 0.776208 0.776234 0.798272 0.776208 0.798249 0.798272 0.819909 0.798249 0.819888 0.819909 0.84117 0.819888 0.841152 0.84117 0.862078 0.841152 0.862063 0.862078 0.882652 0.862063 0.882639 0.882652 0.90291 0.882639 0.9029 0.90291 0.922869 0.9029 0.922861 0.922869 0.942545 0.922861 0.942538 0.942545 0.96195 0.942538 0.961946 0.96195 0.981098 0.961946 0.981096 0.981098 1 0.981096 1 0 0.121551 0 0.12154 0.121551 0.186276 0.12154 0.186254 0.186276 0.238711 0.186254 0.238679 0.238711 0.28448 0.238679 0.28444 0.28448 0.32585 0.28444 0.325804 0.32585 0.364019 0.325804 0.363969 0.364019 0.399713 0.363969 0.39966 0.399713 0.433412 0.39966 0.433358 0.433412 0.465458 0.433358 0.465404 0.465458 0.496101 0.465404 0.496048 0.496101 0.525533 0.496048 0.525482 0.525533 0.553905 0.525482 0.553857 0.553905 0.581338 0.553857 0.581294 0.581338 0.607933 0.581294 0.607891 0.607933 0.633772 0.607891 0.633733 0.633772 0.658924 0.633733 0.658888 0.658924 0.683448 0.658888 0.683416 0.683448 0.707398 0.683416 0.707368 0.707398 0.730815 0.707368 0.730789 0.730815 0.753741 0.730789 0.753717 0.753741 0.776208 0.753717 0.776187 0.776208 0.798249 0.776187 0.79823 0.798249 0.819888 0.79823 0.819872 0.819888 0.841152 0.819872 0.841138 0.841152 0.862063 0.841138 0.86205 0.862063 0.882639 0.86205 0.882629 0.882639 0.9029 0.882629 0.902891 0.9029 0.922861 0.902891 0.922854 0.922861 0.942538 0.922854 0.942533 0.942538 0.961946 0.942533 0.961942 0.961946 0.981096 0.961942 0.981094 0.981096 1 0.981094 1 0 0.12154 0 0.121531 0.12154 0.186254 0.121531 0.186237 0.186254 0.238679 0.186237 0.238656 0.238679 0.28444 0.238656 0.28441 0.28444 0.325804 0.28441 0.32577 0.325804 0.363969 0.32577 0.363931 0.363969 0.39966 0.363931 0.39962 0.39966 0.433358 0.39962 0.433318 0.433358 0.465404 0.433318 0.465364 0.465404 0.496048 0.465364 0.496008 0.496048 0.525482 0.496008 0.525444 0.525482 0.553857 0.525444 0.55382 0.553857 0.581294 0.55382 0.581259 0.581294 0.607891 0.581259 0.607859 0.607891 0.633733 0.607859 0.633703 0.633733 0.658888 0.633703 0.65886 0.658888 0.683416 0.65886 0.683391 0.683416 0.707368 0.683391 0.707345 0.707368 0.730789 0.707345 0.730768 0.730789 0.753717 0.730768 0.753698 0.753717 0.776187 0.753698 0.77617 0.776187 0.79823 0.77617 0.798215 0.79823 0.819872 0.798215 0.819858 0.819872 0.841138 0.819858 0.841126 0.841138 0.86205 0.841126 0.86204 0.86205 0.882629 0.86204 0.88262 0.882629 0.902891 0.88262 0.902884 0.902891 0.922854 0.902884 0.922849 0.922854 0.942533 0.922849 0.942529 0.942533 0.961942 0.942529 0.96194 0.961942 0.981094 0.96194 0.981093 0.981094 1 0.981093 1 0 0.121531 0 0.121525 0.121531 0.186237 0.121525 0.186226 0.186237 0.238656 0.186226 0.23864 0.238656 0.28441 0.23864 0.28439 0.28441 0.32577 0.28439 0.325746 0.32577 0.363931 0.325746 0.363905 0.363931 0.39962 0.363905 0.399593 0.39962 0.433318 0.399593 0.433289 0.433318 0.465364 0.433289 0.465335 0.465364 0.496008 0.465335 0.49598 0.496008 0.525444 0.49598 0.525417 0.525444 0.55382 0.525417 0.553794 0.55382 0.581259 0.553794 0.581234 0.581259 0.607859 0.581234 0.607836 0.607859 0.633703 0.607836 0.633681 0.633703 0.65886 0.633681 0.65884 0.65886 0.683391 0.65884 0.683372 0.683391 0.707345 0.683372 0.707328 0.707345 0.730768 0.707328 0.730753 0.730768 0.753698 0.730753 0.753685 0.753698 0.77617 0.753685 0.776158 0.77617 0.798215 0.776158 0.798204 0.798215 0.819858 0.798204 0.819849 0.819858 0.841126 0.819849 0.841118 0.841126 0.86204 0.841118 0.862033 0.86204 0.88262 0.862033 0.882614 0.88262 0.902884 0.882614 0.902879 0.902884 0.922849 0.902879 0.922845 0.922849 0.942529 0.922845 0.942526 0.942529 0.96194 0.942526 0.961938 0.96194 0.981093 0.961938 0.981092 0.981093 1 0.981092 1 0 0.121525 0 0.121522 0.121525 0.186226 0.121522 0.18622 0.186226 0.23864 0.18622 0.23863 0.23864 0.28439 0.23863 0.284378 0.28439 0.325746 0.284378 0.325733 0.325746 0.363905 0.325733 0.36389 0.363905 0.399593 0.36389 0.399576 0.399593 0.433289 0.399576 0.433273 0.433289 0.465335 0.433273 0.465318 0.465335 0.49598 0.465318 0.495964 0.49598 0.525417 0.495964 0.5254 0.525417 0.553794 0.5254 0.553779 0.553794 0.581234 0.553779 0.581219 0.581234 0.607836 0.581219 0.607822 0.607836 0.633681 0.607822 0.633668 0.633681 0.65884 0.633668 0.658828 0.65884 0.683372 0.658828 0.683361 0.683372 0.707328 0.683361 0.707318 0.707328 0.730753 0.707318 0.730744 0.730753 0.753685 0.730744 0.753676 0.753685 0.776158 0.753676 0.776151 0.776158 0.798204 0.776151 0.798197 0.798204 0.819849 0.798197 0.819843 0.819849 0.841118 0.819843 0.841113 0.841118 0.862033 0.841113 0.862029 0.862033 0.882614 0.862029 0.882611 0.882614 0.902879 0.882611 0.902876 0.902879 0.922845 0.902876 0.922843 0.922845 0.942526 0.922843 0.942525 0.942526 0.961938 0.942525 0.961937 0.961938 0.981092 0.961937 0.981091 0.981092 1 0.981091 1 0 0.121522 0 0.121521 0.121522 0.18622 0.121521 0.186218 0.18622 0.23863 0.186218 0.238627 0.23863 0.284378 0.238627 0.284374 0.284378 0.325733 0.284374 0.325728 0.325733 0.36389 0.325728 0.363885 0.36389 0.399576 0.363885 0.399571 0.399576 0.433273 0.399571 0.433267 0.433273 0.465318 0.433267 0.465313 0.465318 0.495964 0.465313 0.495958 0.495964 0.5254 0.495958 0.525395 0.5254 0.553779 0.525395 0.553773 0.553779 0.581219 0.553773 0.581215 0.581219 0.607822 0.581215 0.607817 0.607822 0.633668 0.607817 0.633664 0.633668 0.658828 0.633664 0.658825 0.658828 0.683361 0.658825 0.683358 0.683361 0.707318 0.683358 0.707315 0.707318 0.730744 0.707315 0.730741 0.730744 0.753676 0.730741 0.753674 0.753676 0.776151 0.753674 0.776148 0.776151 0.798197 0.776148 0.798195 0.798197 0.819843 0.798195 0.819841 0.819843 0.841113 0.819841 0.841112 0.841113 0.862029 0.841112 0.862028 0.862029 0.882611 0.862028 0.882609 0.882611 0.902876 0.882609 0.902875 0.902876 0.922843 0.902875 0.922842 0.922843 0.942525 0.922842 0.942524 0.942525 0.961937 0.942524 0.961936 0.961937 0.981091 0.961936 0.981091 0.981091 1 0.981091 1 0 0.121521 0 0.121522 0.121521 0.186218 0.121522 0.18622 0.186218 0.238627 0.18622 0.23863 0.238627 0.284374 0.23863 0.284378 0.284374 0.325728 0.284378 0.325733 0.325728 0.363885 0.325733 0.36389 0.363885 0.399571 0.36389 0.399576 0.399571 0.433267 0.399576 0.433273 0.433267 0.465313 0.433273 0.465318 0.465313 0.495958 0.465318 0.495964 0.495958 0.525395 0.495964 0.5254 0.525395 0.553773 0.5254 0.553779 0.553773 0.581215 0.553779 0.581219 0.581215 0.607817 0.581219 0.607822 0.607817 0.633664 0.607822 0.633668 0.633664 0.658825 0.633668 0.658828 0.658825 0.683358 0.658828 0.683361 0.683358 0.707315 0.683361 0.707318 0.707315 0.730741 0.707318 0.730744 0.730741 0.753674 0.730744 0.753676 0.753674 0.776148 0.753676 0.776151 0.776148 0.798195 0.776151 0.798197 0.798195 0.819841 0.798197 0.819843 0.819841 0.841112 0.819843 0.841113 0.841112 0.862028 0.841113 0.862029 0.862028 0.882609 0.862029 0.882611 0.882609 0.902875 0.882611 0.902876 0.902875 0.922842 0.902876 0.922843 0.922842 0.942524 0.922843 0.942525 0.942524 0.961936 0.942525 0.961937 0.961936 0.981091 0.961937 0.981091 0.981091 1 0.981091 1 0 0.121522 0 0.121525 0.121522 0.18622 0.121525 0.186226 0.18622 0.23863 0.186226 0.23864 0.23863 0.284378 0.23864 0.28439 0.284378 0.325733 0.28439 0.325746 0.325733 0.36389 0.325746 0.363905 0.36389 0.399576 0.363905 0.399593 0.399576 0.433273 0.399593 0.433289 0.433273 0.465318 0.433289 0.465335 0.465318 0.495964 0.465335 0.49598 0.495964 0.5254 0.49598 0.525417 0.5254 0.553779 0.525417 0.553794 0.553779 0.581219 0.553794 0.581234 0.581219 0.607822 0.581234 0.607836 0.607822 0.633668 0.607836 0.633681 0.633668 0.658828 0.633681 0.65884 0.658828 0.683361 0.65884 0.683372 0.683361 0.707318 0.683372 0.707328 0.707318 0.730744 0.707328 0.730753 0.730744 0.753676 0.730753 0.753685 0.753676 0.776151 0.753685 0.776158 0.776151 0.798197 0.776158 0.798204 0.798197 0.819843 0.798204 0.819849 0.819843 0.841113 0.819849 0.841118 0.841113 0.862029 0.841118 0.862033 0.862029 0.882611 0.862033 0.882614 0.882611 0.902876 0.882614 0.902879 0.902876 0.922843 0.902879 0.922845 0.922843 0.942525 0.922845 0.942526 0.942525 0.961937 0.942526 0.961938 0.961937 0.981091 0.961938 0.981092 0.981091 1 0.9810