# vtk DataFile Version 3.0
#This file was generated by the deal.II library on 2020/5/26 at 20:15:24
ASCII
DATASET UNSTRUCTURED_GRID

POINTS 7240 double
-1 -1 0
-0.875 -1 0
-1 -0.875 0
-0.875 -0.875 0
-0.875 -1 0
-0.75 -1 0
-0.875 -0.875 0
-0.75 -0.875 0
-0.75 -1 0
-0.625 -1 0
-0.75 -0.875 0
-0.625 -0.875 0
-0.625 -1 0
-0.5 -1 0
-0.625 -0.875 0
-0.5 -0.875 0
-0.5 -1 0
-0.375 -1 0
-0.5 -0.875 0
-0.375 -0.875 0
-0.375 -1 0
-0.25 -1 0
-0.375 -0.875 0
-0.25 -0.875 0
-0.25 -1 0
-0.125 -1 0
-0.25 -0.875 0
-0.125 -0.875 0
-0.125 -1 0
0 -1 0
-0.125 -0.875 0
0 -0.875 0
0 -1 0
0.125 -1 0
0 -0.875 0
0.125 -0.875 0
0.125 -1 0
0.25 -1 0
0.125 -0.875 0
0.25 -0.875 0
-1 -0.875 0
-0.875 -0.875 0
-1 -0.75 0
-0.875 -0.75 0
-0.875 -0.875 0
-0.75 -0.875 0
-0.875 -0.75 0
-0.75 -0.75 0
-0.75 -0.875 0
-0.625 -0.875 0
-0.75 -0.75 0
-0.625 -0.75 0
-0.625 -0.875 0
-0.5 -0.875 0
-0.625 -0.75 0
-0.5 -0.75 0
-0.5 -0.875 0
-0.375 -0.875 0
-0.5 -0.75 0
-0.375 -0.75 0
-0.375 -0.875 0
-0.25 -0.875 0
-0.375 -0.75 0
-0.25 -0.75 0
-1 -0.75 0
-0.875 -0.75 0
-1 -0.625 0
-0.875 -0.625 0
-0.875 -0.75 0
-0.75 -0.75 0
-0.875 -0.625 0
-0.75 -0.625 0
-0.75 -0.75 0
-0.625 -0.75 0
-0.75 -0.625 0
-0.625 -0.625 0
-0.625 -0.75 0
-0.5 -0.75 0
-0.625 -0.625 0
-0.5 -0.625 0
-0.5 -0.75 0
-0.375 -0.75 0
-0.5 -0.625 0
-0.375 -0.625 0
-0.375 -0.75 0
-0.25 -0.75 0
-0.375 -0.625 0
-0.25 -0.625 0
-0.25 -0.75 0
-0.125 -0.75 0
-0.25 -0.625 0
-0.125 -0.625 0
-0.125 -0.75 0
0 -0.75 0
-0.125 -0.625 0
0 -0.625 0
0 -0.75 0
0.125 -0.75 0
0 -0.625 0
0.125 -0.625 0
-1 -0.625 0
-0.875 -0.625 0
-1 -0.5 0
-0.875 -0.5 0
-0.875 -0.625 0
-0.75 -0.625 0
-0.875 -0.5 0
-0.75 -0.5 0
-0.75 -0.625 0
-0.625 -0.625 0
-0.75 -0.5 0
-0.625 -0.5 0
-0.625 -0.625 0
-0.5 -0.625 0
-0.625 -0.5 0
-0.5 -0.5 0
-0.5 -0.625 0
-0.375 -0.625 0
-0.5 -0.5 0
-0.375 -0.5 0
-0.375 -0.625 0
-0.25 -0.625 0
-0.375 -0.5 0
-0.25 -0.5 0
-0.25 -0.625 0
-0.125 -0.625 0
-0.25 -0.5 0
-0.125 -0.5 0
-0.125 -0.625 0
0 -0.625 0
-0.125 -0.5 0
0 -0.5 0
0 -0.625 0
0.125 -0.625 0
0 -0.5 0
0.125 -0.5 0
0.125 -0.625 0
0.25 -0.625 0
0.125 -0.5 0
0.25 -0.5 0
0.25 -0.625 0
0.375 -0.625 0
0.25 -0.5 0
0.375 -0.5 0
0.875 -0.625 0
1 -0.625 0
0.875 -0.5 0
1 -0.5 0
-1 -0.5 0
-0.875 -0.5 0
-1 -0.375 0
-0.875 -0.375 0
-0.875 -0.5 0
-0.75 -0.5 0
-0.875 -0.375 0
-0.75 -0.375 0
-0.75 -0.5 0
-0.625 -0.5 0
-0.75 -0.375 0
-0.625 -0.375 0
-0.625 -0.5 0
-0.5 -0.5 0
-0.625 -0.375 0
-0.5 -0.375 0
-0.5 -0.5 0
-0.375 -0.5 0
-0.5 -0.375 0
-0.375 -0.375 0
-0.375 -0.5 0
-0.25 -0.5 0
-0.375 -0.375 0
-0.25 -0.375 0
-0.25 -0.5 0
-0.125 -0.5 0
-0.25 -0.375 0
-0.125 -0.375 0
-0.125 -0.5 0
0 -0.5 0
-0.125 -0.375 0
0 -0.375 0
0 -0.5 0
0.125 -0.5 0
0 -0.375 0
0.125 -0.375 0
0.125 -0.5 0
0.25 -0.5 0
0.125 -0.375 0
0.25 -0.375 0
0.25 -0.5 0
0.375 -0.5 0
0.25 -0.375 0
0.375 -0.375 0
0.375 -0.5 0
0.5 -0.5 0
0.375 -0.375 0
0.5 -0.375 0
0.5 -0.5 0
0.625 -0.5 0
0.5 -0.375 0
0.625 -0.375 0
0.625 -0.5 0
0.75 -0.5 0
0.625 -0.375 0
0.75 -0.375 0
0.875 -0.5 0
1 -0.5 0
0.875 -0.375 0
1 -0.375 0
-1 -0.375 0
-0.875 -0.375 0
-1 -0.25 0
-0.875 -0.25 0
-0.875 -0.375 0
-0.75 -0.375 0
-0.875 -0.25 0
-0.75 -0.25 0
-0.75 -0.375 0
-0.625 -0.375 0
-0.75 -0.25 0
-0.625 -0.25 0
-0.625 -0.375 0
-0.5 -0.375 0
-0.625 -0.25 0
-0.5 -0.25 0
-0.5 -0.375 0
-0.375 -0.375 0
-0.5 -0.25 0
-0.375 -0.25 0
-0.375 -0.375 0
-0.25 -0.375 0
-0.375 -0.25 0
-0.25 -0.25 0
-0.25 -0.375 0
-0.125 -0.375 0
-0.25 -0.25 0
-0.125 -0.25 0
-0.125 -0.375 0
0 -0.375 0
-0.125 -0.25 0
0 -0.25 0
0 -0.375 0
0.125 -0.375 0
0 -0.25 0
0.125 -0.25 0
0.125 -0.375 0
0.25 -0.375 0
0.125 -0.25 0
0.25 -0.25 0
0.25 -0.375 0
0.375 -0.375 0
0.25 -0.25 0
0.375 -0.25 0
0.375 -0.375 0
0.5 -0.375 0
0.375 -0.25 0
0.5 -0.25 0
-1 -0.25 0
-0.875 -0.25 0
-1 -0.125 0
-0.875 -0.125 0
-0.875 -0.25 0
-0.75 -0.25 0
-0.875 -0.125 0
-0.75 -0.125 0
-0.75 -0.25 0
-0.625 -0.25 0
-0.75 -0.125 0
-0.625 -0.125 0
-0.625 -0.25 0
-0.5 -0.25 0
-0.625 -0.125 0
-0.5 -0.125 0
-0.5 -0.25 0
-0.375 -0.25 0
-0.5 -0.125 0
-0.375 -0.125 0
-0.375 -0.25 0
-0.25 -0.25 0
-0.375 -0.125 0
-0.25 -0.125 0
-0.25 -0.25 0
-0.125 -0.25 0
-0.25 -0.125 0
-0.125 -0.125 0
-0.125 -0.25 0
0 -0.25 0
-0.125 -0.125 0
0 -0.125 0
0 -0.25 0
0.125 -0.25 0
0 -0.125 0
0.125 -0.125 0
0.125 -0.25 0
0.25 -0.25 0
0.125 -0.125 0
0.25 -0.125 0
0.25 -0.25 0
0.375 -0.25 0
0.25 -0.125 0
0.375 -0.125 0
-1 -0.125 0
-0.875 -0.125 0
-1 0 0
-0.875 0 0
-0.875 -0.125 0
-0.75 -0.125 0
-0.875 0 0
-0.75 0 0
-0.75 -0.125 0
-0.625 -0.125 0
-0.75 0 0
-0.625 0 0
-0.625 -0.125 0
-0.5 -0.125 0
-0.625 0 0
-0.5 0 0
-0.5 -0.125 0
-0.375 -0.125 0
-0.5 0 0
-0.375 0 0
-0.375 -0.125 0
-0.25 -0.125 0
-0.375 0 0
-0.25 0 0
-0.25 -0.125 0
-0.125 -0.125 0
-0.25 0 0
-0.125 0 0
-0.125 -0.125 0
0 -0.125 0
-0.125 0 0
0 0 0
0 -0.125 0
0.125 -0.125 0
0 0 0
0.125 0 0
-1 0 0
-0.875 0 0
-1 0.125 0
-0.875 0.125 0
-0.875 0 0
-0.75 0 0
-0.875 0.125 0
-0.75 0.125 0
-0.75 0 0
-0.625 0 0
-0.75 0.125 0
-0.625 0.125 0
-0.625 0 0
-0.5 0 0
-0.625 0.125 0
-0.5 0.125 0
-0.5 0 0
-0.375 0 0
-0.5 0.125 0
-0.375 0.125 0
-0.375 0 0
-0.25 0 0
-0.375 0.125 0
-0.25 0.125 0
-0.25 0 0
-0.125 0 0
-0.25 0.125 0
-0.125 0.125 0
-0.125 0 0
0 0 0
-0.125 0.125 0
0 0.125 0
-1 0.125 0
-0.875 0.125 0
-1 0.25 0
-0.875 0.25 0
-0.875 0.125 0
-0.75 0.125 0
-0.875 0.25 0
-0.75 0.25 0
-0.75 0.125 0
-0.625 0.125 0
-0.75 0.25 0
-0.625 0.25 0
-0.625 0.125 0
-0.5 0.125 0
-0.625 0.25 0
-0.5 0.25 0
-0.5 0.125 0
-0.375 0.125 0
-0.5 0.25 0
-0.375 0.25 0
-0.25 0.125 0
-0.125 0.125 0
-0.25 0.25 0
-0.125 0.25 0
-0.125 0.125 0
0 0.125 0
-0.125 0.25 0
0 0.25 0
-1 0.25 0
-0.875 0.25 0
-1 0.375 0
-0.875 0.375 0
-0.875 0.25 0
-0.75 0.25 0
-0.875 0.375 0
-0.75 0.375 0
-0.75 0.25 0
-0.625 0.25 0
-0.75 0.375 0
-0.625 0.375 0
-0.375 0.25 0
-0.25 0.25 0
-0.375 0.375 0
-0.25 0.375 0
-0.25 0.25 0
-0.125 0.25 0
-0.25 0.375 0
-0.125 0.375 0
-0.125 0.25 0
0 0.25 0
-0.125 0.375 0
0 0.375 0
0 0.25 0
0.125 0.25 0
0 0.375 0
0.125 0.375 0
-1 0.375 0
-0.875 0.375 0
-1 0.5 0
-0.875 0.5 0
-0.875 0.375 0
-0.75 0.375 0
-0.875 0.5 0
-0.75 0.5 0
-0.75 0.375 0
-0.625 0.375 0
-0.75 0.5 0
-0.625 0.5 0
-0.5 0.375 0
-0.375 0.375 0
-0.5 0.5 0
-0.375 0.5 0
-0.375 0.375 0
-0.25 0.375 0
-0.375 0.5 0
-0.25 0.5 0
-0.25 0.375 0
-0.125 0.375 0
-0.25 0.5 0
-0.125 0.5 0
-0.125 0.375 0
0 0.375 0
-0.125 0.5 0
0 0.5 0
0 0.375 0
0.125 0.375 0
0 0.5 0
0.125 0.5 0
0.875 0.375 0
1 0.375 0
0.875 0.5 0
1 0.5 0
-1 0.5 0
-0.875 0.5 0
-1 0.625 0
-0.875 0.625 0
-0.875 0.5 0
-0.75 0.5 0
-0.875 0.625 0
-0.75 0.625 0
-0.5 0.5 0
-0.375 0.5 0
-0.5 0.625 0
-0.375 0.625 0
-0.375 0.5 0
-0.25 0.5 0
-0.375 0.625 0
-0.25 0.625 0
-0.25 0.5 0
-0.125 0.5 0
-0.25 0.625 0
-0.125 0.625 0
-0.125 0.5 0
0 0.5 0
-0.125 0.625 0
0 0.625 0
0.625 0.5 0
0.75 0.5 0
0.625 0.625 0
0.75 0.625 0
-1 0.625 0
-0.875 0.625 0
-1 0.75 0
-0.875 0.75 0
-0.5 0.625 0
-0.375 0.625 0
-0.5 0.75 0
-0.375 0.75 0
-0.375 0.625 0
-0.25 0.625 0
-0.375 0.75 0
-0.25 0.75 0
-0.5 0.75 0
-0.375 0.75 0
-0.5 0.875 0
-0.375 0.875 0
-1 0.875 0
-0.875 0.875 0
-1 1 0
-0.875 1 0
-0.5 0.875 0
-0.375 0.875 0
-0.5 1 0
-0.375 1 0
-0.375 0.875 0
-0.25 0.875 0
-0.375 1 0
-0.25 1 0
0.5 -0.25 0
0.5625 -0.25 0
0.5 -0.1875 0
0.5625 -0.1875 0
0.5625 -0.25 0
0.625 -0.25 0
0.5625 -0.1875 0
0.625 -0.1875 0
0.5 -0.1875 0
0.5625 -0.1875 0
0.5 -0.125 0
0.5625 -0.125 0
0.625 -0.25 0
0.6875 -0.25 0
0.625 -0.1875 0
0.6875 -0.1875 0
0.125 -0.125 0
0.1875 -0.125 0
0.125 -0.0625 0
0.1875 -0.0625 0
0.1875 -0.125 0
0.25 -0.125 0
0.1875 -0.0625 0
0.25 -0.0625 0
0.125 -0.0625 0
0.1875 -0.0625 0
0.125 0 0
0.1875 0 0
0.1875 -0.0625 0
0.25 -0.0625 0
0.1875 0 0
0.25 0 0
0.25 -0.125 0
0.3125 -0.125 0
0.25 -0.0625 0
0.3125 -0.0625 0
0.3125 -0.125 0
0.375 -0.125 0
0.3125 -0.0625 0
0.375 -0.0625 0
0.25 -0.0625 0
0.3125 -0.0625 0
0.25 0 0
0.3125 0 0
0.3125 -0.0625 0
0.375 -0.0625 0
0.3125 0 0
0.375 0 0
0.375 -0.125 0
0.4375 -0.125 0
0.375 -0.0625 0
0.4375 -0.0625 0
0.4375 -0.125 0
0.5 -0.125 0
0.4375 -0.0625 0
0.5 -0.0625 0
0.375 -0.0625 0
0.4375 -0.0625 0
0.375 0 0
0.4375 0 0
0.25 -1 0
0.3125 -1 0
0.25 -0.9375 0
0.3125 -0.9375 0
0.3125 -1 0
0.375 -1 0
0.3125 -0.9375 0
0.375 -0.9375 0
0.25 -0.9375 0
0.3125 -0.9375 0
0.25 -0.875 0
0.3125 -0.875 0
0.3125 -0.9375 0
0.375 -0.9375 0
0.3125 -0.875 0
0.375 -0.875 0
0.375 -1 0
0.4375 -1 0
0.375 -0.9375 0
0.4375 -0.9375 0
0.4375 -1 0
0.5 -1 0
0.4375 -0.9375 0
0.5 -0.9375 0
0.375 -0.9375 0
0.4375 -0.9375 0
0.375 -0.875 0
0.4375 -0.875 0
0.4375 -0.9375 0
0.5 -0.9375 0
0.4375 -0.875 0
0.5 -0.875 0
0 0 0
0.0625 0 0
0 0.0625 0
0.0625 0.0625 0
0.0625 0 0
0.125 0 0
0.0625 0.0625 0
0.125 0.0625 0
0 0.0625 0
0.0625 0.0625 0
0 0.125 0
0.0625 0.125 0
0.0625 0.0625 0
0.125 0.0625 0
0.0625 0.125 0
0.125 0.125 0
0.125 0 0
0.1875 0 0
0.125 0.0625 0
0.1875 0.0625 0
0.1875 0 0
0.25 0 0
0.1875 0.0625 0
0.25 0.0625 0
0.125 0.0625 0
0.1875 0.0625 0
0.125 0.125 0
0.1875 0.125 0
0.1875 0.0625 0
0.25 0.0625 0
0.1875 0.125 0
0.25 0.125 0
0.25 0 0
0.3125 0 0
0.25 0.0625 0
0.3125 0.0625 0
0.3125 0 0
0.375 0 0
0.3125 0.0625 0
0.375 0.0625 0
0.25 0.0625 0
0.3125 0.0625 0
0.25 0.125 0
0.3125 0.125 0
0.3125 0.0625 0
0.375 0.0625 0
0.3125 0.125 0
0.375 0.125 0
0.375 0 0
0.4375 0 0
0.375 0.0625 0
0.4375 0.0625 0
0.375 0.0625 0
0.4375 0.0625 0
0.375 0.125 0
0.4375 0.125 0
0.4375 0.0625 0
0.5 0.0625 0
0.4375 0.125 0
0.5 0.125 0
0.875 -0.75 0
0.9375 -0.75 0
0.875 -0.6875 0
0.9375 -0.6875 0
0.9375 -0.75 0
1 -0.75 0
0.9375 -0.6875 0
1 -0.6875 0
0.875 -0.6875 0
0.9375 -0.6875 0
0.875 -0.625 0
0.9375 -0.625 0
0.9375 -0.6875 0
1 -0.6875 0
0.9375 -0.625 0
1 -0.625 0
0.375 -0.625 0
0.4375 -0.625 0
0.375 -0.5625 0
0.4375 -0.5625 0
0.4375 -0.625 0
0.5 -0.625 0
0.4375 -0.5625 0
0.5 -0.5625 0
0.375 -0.5625 0
0.4375 -0.5625 0
0.375 -0.5 0
0.4375 -0.5 0
0.4375 -0.5625 0
0.5 -0.5625 0
0.4375 -0.5 0
0.5 -0.5 0
-0.375 0.125 0
-0.3125 0.125 0
-0.375 0.1875 0
-0.3125 0.1875 0
-0.3125 0.125 0
-0.25 0.125 0
-0.3125 0.1875 0
-0.25 0.1875 0
-0.375 0.1875 0
-0.3125 0.1875 0
-0.375 0.25 0
-0.3125 0.25 0
-0.3125 0.1875 0
-0.25 0.1875 0
-0.3125 0.25 0
-0.25 0.25 0
0 0.125 0
0.0625 0.125 0
0 0.1875 0
0.0625 0.1875 0
0.0625 0.125 0
0.125 0.125 0
0.0625 0.1875 0
[...]
POINT_DATA 7240
SCALARS solution double 1
LOOKUP_TABLE default
1 0.92388 0.92388 0.73047 0.92388 0.707107 0.73047 0.424371 0.707107 0.382683 0.424371 0.0194543 0.382683 -1.83697e-16 0.0194543 -0.38652 -1.83697e-16 -0.382683 -0.38652 -0.723177 -0.382683 -0.707107 -0.723177 -0.958733 -0.707107 -0.92388 -0.958733 -1.05548 -0.92388 -1 -1.05548 -0.952388 -1 -0.92388 -0.952388 -0.738695 -0.92388 -0.707107 -0.738695 -0.422073 0.92388 0.73047 0.707107 0.408232 0.73047 0.424371 0.408232 0.0115375 0.424371 0.0194543 0.0115375 -0.36376 0.0194543 -0.38652 -0.36376 -0.668508 -0.38652 -0.723177 -0.668508 -0.903495 -0.723177 -0.958733 -0.903495 -1.00657 0.707107 0.408232 0.382683 -0.00470968 0.408232 0.0115375 -0.00470968 -0.382813 0.0115375 -0.36376 -0.382813 -0.700279 -0.36376 -0.668508 -0.700279 -0.931733 -0.668508 -0.903495 -0.931733 -1.01431 -0.903495 -1.00657 -1.01431 -0.921906 -1.00657 -0.886121 -0.921906 -0.685864 -0.886121 -0.691635 -0.685864 -0.356756 -0.691635 -0.357474 -0.356756 0.0328606 0.382683 -0.00470968 -1.83697e-16 -0.398248 -0.00470968 -0.382813 -0.398248 -0.735127 -0.382813 -0.700279 -0.735127 -0.964945 -0.700279 -0.931733 -0.964945 -1.05412 -0.931733 -1.01431 -1.05412 -0.997872 -1.01431 -0.921906 -0.997872 -0.79134 -0.921906 -0.685864 -0.79134 -0.448787 -0.685864 -0.356756 -0.448787 -0.0479932 -0.356756 0.0328606 -0.0479932 0.328296 0.0328606 0.453794 0.328296 0.662181 0.453794 0.750467 0.662181 0.902254 0.447391 0 0.3694 0 -1.83697e-16 -0.398248 -0.382683 -0.734322 -0.398248 -0.735127 -0.734322 -0.975809 -0.735127 -0.964945 -0.975809 -1.05568 -0.964945 -1.05412 -1.05568 -0.988999 -1.05412 -0.997872 -0.988999 -0.763859 -0.997872 -0.79134 -0.763859 -0.386907 -0.79134 -0.448787 -0.386907 0.0441282 -0.448787 -0.0479932 0.0441282 0.448404 -0.0479932 0.328296 0.448404 0.81854 0.328296 0.662181 0.81854 1.08369 0.662181 0.902254 1.08369 1.17523 0.902254 0.983168 1.17523 1.09701 0.983168 0.876706 1.09701 1.01403 0.876706 0.669859 1.01403 0.658352 0.3694 0 0.372324 0 -0.382683 -0.734322 -0.707107 -0.852286 -0.734322 -0.975809 -0.852286 -0.877134 -0.975809 -1.05568 -0.877134 -0.832135 -1.05568 -0.988999 -0.832135 -0.665138 -0.988999 -0.763859 -0.665138 -0.343738 -0.763859 -0.386907 -0.343738 0.0604193 -0.386907 0.0441282 0.0604193 0.44423 0.0441282 0.448404 0.44423 0.777782 0.448404 0.81854 0.777782 1.021 0.81854 1.08369 1.021 1.09155 1.08369 1.17523 1.09155 1.0253 1.17523 1.09701 1.0253 0.838196 -0.707107 -0.852286 -0.92388 -1.01358 -0.852286 -0.877134 -1.01358 -0.936832 -0.877134 -0.832135 -0.936832 -0.684094 -0.832135 -0.665138 -0.684094 -0.335079 -0.665138 -0.343738 -0.335079 0.0514913 -0.343738 0.0604193 0.0514913 0.424165 0.0604193 0.44423 0.424165 0.723314 0.44423 0.777782 0.723314 0.947789 0.777782 1.021 0.947789 1.02265 1.021 1.09155 1.02265 0.932311 1.09155 1.0253 0.932311 0.70983 -0.92388 -1.01358 -1 -0.948357 -1.01358 -0.936832 -0.948357 -0.761235 -0.936832 -0.684094 -0.761235 -0.480387 -0.684094 -0.335079 -0.480387 -0.0855077 -0.335079 0.0514913 -0.0855077 0.398934 0.0514913 0.424165 0.398934 0.766186 0.424165 0.723314 0.766186 0.96225 0.723314 0.947789 0.96225 1.06706 0.947789 1.02265 1.06706 0.946661 -1 -0.948357 -0.92388 -0.707074 -0.948357 -0.761235 -0.707074 -0.40316 -0.761235 -0.480387 -0.40316 -0.0833552 -0.480387 -0.0855077 -0.0833552 0.322072 -0.0855077 0.398934 0.322072 0.676497 0.398934 0.766186 0.676497 0.872739 0.766186 0.96225 0.872739 1.02545 0.96225 1.06706 1.02545 1.06096 -0.92388 -0.707074 -0.707107 -0.378574 -0.707074 -0.40316 -0.378574 -0.0345027 -0.40316 -0.0833552 -0.0345027 0.310288 -0.0833552 0.322072 0.310288 0.71514 0.322072 0.676497 0.71514 0.925831 0.872739 1.02545 0.949104 0.935064 1.02545 1.06096 0.935064 0.776444 -0.707107 -0.378574 -0.382683 -0.00274289 -0.378574 -0.0345027 -0.00274289 0.313609 -0.0345027 0.310288 0.313609 0.652889 0.925831 0.949104 1.00349 0.962649 0.949104 0.935064 0.962649 0.834095 0.935064 0.776444 0.834095 0.457591 0.776444 0.375305 0.457591 -0.0425704 -0.382683 -0.00274289 6.12323e-17 0.352539 -0.00274289 0.313609 0.352539 0.590833 0.313609 0.652889 0.590833 0.923158 1.03584 1.00349 1.09269 0.946328 1.00349 0.962649 0.946328 0.852508 0.962649 0.834095 0.852508 0.59137 0.834095 0.457591 0.59137 0.11065 0.457591 -0.0425704 0.11065 -0.309663 -0.418519 0 -0.354494 0 6.12323e-17 0.352539 0.382683 0.616285 0.352539 0.590833 0.616285 0.745923 1.09269 0.946328 0.891831 0.718024 0.946328 0.852508 0.718024 0.538503 0.852508 0.59137 0.538503 0.102325 0.59137 0.11065 0.102325 -0.4206 -0.906625 -0.61442 -1.02943 -0.690201 0.382683 0.616285 0.707107 0.667927 0.891831 0.718024 0.618433 0.494794 0.718024 0.538503 0.494794 0.231603 0.618433 0.494794 0.37685 0.20772 0.92388 0.336093 0 0 0.37685 0.20772 0 0 0.20772 0.118039 0 0 0.838196 0.684094 0.553524 0.373852 0.684094 0.492652 0.373852 0.220501 0.553524 0.373852 0.375093 0.205918 0.492652 0.421201 0.220501 0.00833888 1.02265 0.988871 0.972488 0.946364 0.988871 0.932311 0.946364 0.866178 0.972488 0.946364 0.946661 0.865559 0.946364 0.866178 0.865559 0.710002 0.932311 0.847559 0.866178 0.708883 0.847559 0.70983 0.708883 0.547924 0.866178 0.708883 0.710002 0.553536 0.708883 0.547924 0.553536 0.395941 0.70983 0.562981 0.547924 0.393795 0.562981 0.375093 0.393795 0.201329 0.547924 0.393795 0.395941 0.19928 -0.707107 -0.55557 -0.560332 -0.439267 -0.55557 -0.382683 -0.439267 -0.252418 -0.560332 -0.439267 -0.422073 -0.216828 -0.439267 -0.252418 -0.216828 -0.00424614 -0.382683 -0.19509 -0.252418 -0.0536115 -0.19509 6.12323e-17 -0.0536115 0.115697 -0.252418 -0.0536115 -0.00424614 0.153855 -0.0536115 0.115697 0.153855 0.315737 1.06706 1.01193 0.987784 0.966672 1.01193 0.946661 0.966672 0.905362 0.987784 0.966672 1.06096 0.916668 0.966672 0.905362 0.916668 0.749755 0.946661 0.865559 0.905362 0.75214 0.865559 0.710002 0.75214 0.565337 0.905362 0.75214 0.749755 0.598293 0.75214 0.565337 0.598293 0.414201 0.710002 0.553536 0.565337 0.382255 0.553536 0.395941 0.382255 0.191957 0.565337 0.382255 0.414201 0.213356 0.382255 0.191957 0.213356 0.0114646 0.395941 0.19928 0.191957 0.00175488 0.191957 0.00175488 0.0114646 -0.195923 0.00175488 -0.187262 -0.195923 -0.385899 0.709121 0.42297 0.447076 0.379183 0.42297 0 0.379183 0 0.447076 0.379183 0.447391 0.717383 0.379183 0 0.717383 0 0.750467 0.818832 0.702372 0.792073 0.818832 0.969673 0.792073 0.907082 0.702372 0.792073 0.902254 1.00857 0.792073 0.907082 1.00857 0.983168 0.676497 0.77505 0.781994 0.873532 0.77505 0.872739 0.873532 0.940682 0.781994 0.873532 0.925831 0.923702 0.873532 0.940682 0.923702 0.949104 1.06096 0.916668 0.793881 0.775908 0.916668 0.749755 0.775908 0.710997 0.793881 0.775908 0.776444 0.62363 0.775908 0.710997 0.62363 0.375305 0.749755 0.598293 0.710997 0.442293 0.598293 0.414201 0.442293 0.19353 0.710997 0.442293 0.375305 0.209855 0.442293 0.19353 0.209855 0.104876 0.414201 0.213356 0.19353 0.0269218 0.213356 0.0114646 0.0269218 -0.165135 0.19353 0.0269218 0.104876 -0.127071 0.0269218 -0.165135 -0.127071 -0.373919 0.0114646 -0.195923 -0.165135 -0.373243 -0.165135 -0.373243 -0.373919 -0.533346 -0.373243 -0.553555 -0.533346 -0.675908 -0.553555 -0.709608 -0.675908 -0.815439 -0.709608 -0.837285 -0.815439 -0.927204 -0.837285 -0.915289 -0.927204 -0.982782 0.310288 0.546734 0.604667 0.685287 0.546734 0.71514 0.685287 0.793369 0.604667 0.685287 0.652889 0.894515 0.685287 0.793369 0.894515 1.03584 0.71514 0.840666 0.793369 0.930798 0.840666 0.925831 0.930798 0.98777 0.793369 0.930798 1.03584 0.996342 0.930798 0.98777 0.996342 1.00349 0.375305 0.209855 0.192826 0.0170468 0.209855 0.104876 0.0170468 -0.189083 0.192826 0.0170468 -0.0425704 -0.2228 0.0170468 -0.189083 -0.2228 -0.376414 0.104876 -0.127071 -0.189083 -0.330653 -0.127071 -0.373919 -0.330653 -0.427566 -0.189083 -0.330653 -0.376414 -0.555667 -0.330653 -0.427566 -0.555667 -0.720433 -0.373919 -0.533346 -0.427566 -0.580947 -0.533346 -0.675908 -0.580947 -0.732624 -0.427566 -0.580947 -0.720433 -0.802165 -0.580947 -0.732624 -0.802165 -0.841568 -0.675908 -0.815439 -0.732624 -0.769787 -0.815439 -0.927204 -0.769787 -0.837892 0.652889 0.894515 0.878667 0.926677 0.894515 1.03584 0.926677 0.969687 0.878667 0.926677 0.923158 1.02414 0.926677 0.969687 1.02414 1.09269 -0.0425704 -0.2228 -0.176707 -0.355504 -0.2228 -0.376414 -0.355504 -0.561006 -0.176707 -0.355504 -0.309663 -0.507719 -0.355504 -0.561006 -0.507719 -0.669183 -0.376414 -0.555667 -0.561006 -0.687326 -0.555667 -0.720433 -0.687326 -0.745789 -0.561006 -0.687326 -0.669183 -0.795076 -0.687326 -0.745789 -0.795076 -0.91377 -0.720433 -0.802165 -0.745789 -0.812331 -0.802165 -0.841568 -0.812331 -0.856462 -0.745789 -0.812331 -0.91377 -0.971026 -0.812331 -0.856462 -0.971026 -0.962689 0.590833 0.736867 0.93739 0.909859 0.736867 0.923158 0.909859 0.962703 0.93739 0.909859 0.745923 0.899836 0.909859 0.962703 0.899836 1.16779 0.923158 1.02414 0.962703 1.08339 1.02414 1.09269 1.08339 1.02761 0.962703 1.08339 1.16779 1.06877 1.08339 1.02761 1.06877 0.891831 0.11065 -0.27428 -0.171154 -0.353616 -0.27428 -0.309663 -0.353616 -0.546196 -0.171154 -0.353616 -0.4206 -0.575397 -0.353616 -0.546196 -0.575397 -0.734261 -0.309663 -0.507719 -0.546196 -0.751948 -0.507719 -0.669183 -0.751948 -0.880407 -0.546196 -0.751948 -0.734261 -0.869206 -0.751948 -0.880407 -0.869206 -1.00952 -0.669183 -0.795076 -0.880407 -0.981185 -0.795076 -0.91377 -0.981185 -1.04828 -0.880407 -0.981185 -1.00952 -1.12263 -0.981185 -1.04828 -1.12263 -1.17979 -0.91377 -0.971026 -1.04828 -1.08112 -0.971026 -0.962689 -1.08112 -1.08059 -1.04828 -1.08112 -1.17979 -1.20112 -1.08112 -1.08059 -1.20112 -1.17656 0.616285 0.660094 0.870457 0.706071 0.660094 0.745923 0.706071 0.725161 0.870457 0.706071 0.667927 0.576133 0.706071 0.725161 0.576133 1.00226 0.745923 0.899836 0.725161 0.997533 0.899836 1.16779 0.997533 0.955125 0.725161 0.997533 1.00226 1.0758 0.997533 0.955125 1.0758 0.893875 1.16779 1.06877 0.955125 0.845911 1.06877 0.891831 0.845911 0.840861 0.955125 0.845911 0.893875 0.802419 0.845911 0.840861 0.802419 0.618433 0.102325 -0.153834 -0.0825664 -0.433198 -0.153834 -0.4206 -0.433198 -0.598005 -0.0825664 -0.433198 -0.570913 -0.559818 -0.433198 -0.598005 -0.559818 -0.618273 -0.4206 -0.575397 -0.598005 -0.71277 -0.575397 -0.734261 -0.71277 -0.895076 -0.598005 -0.71277 -0.618273 -0.813428 -0.869206 -1.00952 -0.992847 -1.01392 -0.992847 -1.01392 -0.972502 -1.02571 -1.00952 -1.12263 -1.01392 -1.01397 -1.12263 -1.17979 -1.01397 -1.0188 -1.01392 -1.01397 -1.02571 -1.00686 -1.17979 -1.20112 -1.0188 -0.983681 -1.20112 -1.17656 -0.983681 -0.894094 -1.0188 -0.983681 -0.942417 -0.835145 -0.983681 -0.894094 -0.835145 -0.723264 -1.17656 -1.12093 -0.894094 -0.828675 -1.12093 -1.02943 -0.828675 -0.740713 0.667927 0.576133 0.504099 0.799957 0.576133 1.00226 0.799957 0.987969 0.504099 0.799957 0.336093 0.887671 0.799957 0.987969 0.887671 0.928819 1.00226 1.0758 0.987969 0.89838 0.893875 0.802419 0.945204 0.802889 0.802419 0.618433 0.802889 0.538213 0.945204 0.802889 0.715512 0.461959 0.802889 0.538213 0.461959 0.37685 0.231603 0.187252 0.349872 -0.162768 0.349872 -0.162768 0.118039 -0.51535 -0.845468 -0.688104 -0.710239 -0.493578 -0.688104 -0.501748 -0.493578 -0.328201 -0.612751 -0.498764 -0.368033 -0.243169 -0.501748 -0.368033 -0.328201 -0.232771 -0.368033 -0.243169 -0.232771 -0.105698 -0.498764 -0.328687 -0.243169 -0.0281852 0.336093 0.887671 1.39997 0.549526 1.39997 0.549526 0 0 -0.493578 -0.328201 -0.268487 -0.144409 -0.328201 -0.232771 -0.144409 -0.0760285 -0.232771 -0.105698 -0.0760285 0.0309061 6.12323e-17 0.19509 0.115697 0.239269 0.19509 0.382683 0.239269 0.394219 0.382683 0.55557 0.394219 0.536946 -0.958733 -0.976761 -0.985704 -1.05337 -0.976761 -1.05548 -1.05337 -1.00998 -0.985704 -1.05337 -1.00657 -1.03289 -1.05337 -1.00998 -1.03289 -0.886121 -1.05548 -0.970854 -1.00998 -0.928045 -0.970854 -0.952388 -0.928045 -0.840074 -1.00998 -0.928045 -0.886121 -0.860874 -0.928045 -0.840074 -0.860874 -0.691635 -0.952388 -0.798143 -0.840074 -0.726129 -0.798143 -0.738695 -0.726129 -0.558695 -0.840074 -0.726129 -0.691635 -0.570559 -0.726129 -0.558695 -0.570559 -0.357474 -0.738695 -0.527181 -0.558695 -0.374354 -0.527181 -0.422073 -0.374354 -0.203933 -0.558695 -0.374354 -0.357474 -0.22365 -0.374354 -0.203933 -0.22365 -0.00976317 -0.422073 -0.216828 -0.203933 0.0196426 -0.216828 -0.00424614 0.0196426 0.211798 -0.203933 0.0196426 -0.00976317 0.22615 0.0196426 0.211798 0.22615 0.392698 -0.00424614 0.153855 0.211798 0.390153 0.211798 0.390153 0.392698 0.549859 0.390153 0.567399 0.549859 0.699367 0.567399 0.704847 0.699367 0.842384 0.704847 0.819925 0.842384 0.940807 0.819925 0.914643 0.940807 0.967232 -0.357474 -0.22365 -0.22624 -0.0525446 -0.22365 -0.00976317 -0.0525446 0.213285 -0.22624 -0.0525446 0.0328606 0.178063 -0.0525446 0.213285 0.178063 0.453794 -0.00976317 0.22615 0.213285 0.368429 0.22615 0.392698 0.368429 0.507918 0.213285 0.368429 0.453794 0.527182 0.368429 0.507918 0.527182 0.750467 0.392698 0.549859 0.507918 0.646655 0.549859 0.699367 0.646655 0.721392 0.507918 0.646655 0.750467 0.818832 0.699367 0.842384 0.721392 0.825435 0.842384 0.940807 0.825435 0.862036 1.01403 0.424087 0.71311 0.561006 0.424087 0.658352 0.561006 0.39762 1.0253 0.771037 0.847621 0.719375 0.771037 0.838196 0.719375 0.553524 0.847621 0.719375 0.70983 0.562981 0.719375 0.553524 0.562981 0.375093 0.538503 0.327571 0.0690801 0.155299 0.327571 0.102325 0.155299 -0.0825664 0.0690801 0.155299 0.231603 0.187252 0.155299 -0.0825664 0.187252 -0.570913 -1.02943 -0.465833 -0.740713 -0.580727 -0.465833 -0.690201 -0.580727 -0.357071 0.715512 0.461959 0.564575 0.291316 0.461959 0.37685 0.291316 0.177989 0.564575 0.291316 0 0 0.291316 0.177989 0 0 0.118039 -0.51535 -0.872284 -0.317326 -0.872284 -0.317326 0 0 0.969673 1.00966 0.907082 0.873723 1.00966 0.981594 0.873723 0.784492 0.907082 0.873723 0.983168 0.925916 0.873723 0.784492 0.925916 0.876706 0.981594 0.924104 0.784492 0.766044 0.924104 0.835267 0.766044 0.667241 0.784492 0.766044 0.876706 0.872329 0.766044 0.667241 0.872329 0.669859 0.835267 0.674277 0.667241 0.5106 0.674277 0.447391 0.5106 0.333733 0.667241 0.5106 0.669859 0.50446 0.5106 0.333733 0.50446 0.3694 0.669859 0.50446 0.626101 0.458175 0.50446 0.3694 0.458175 0.330158 0.626101 0.458175 0.658352 0.580518 0.458175 0.330158 0.580518 0.372324 1.09701 0.641503 0.89054 0.905295 0.641503 1.01403 0.905295 0.71311 0.89054 0.905295 0.838196 0.684094 0.905295 0.71311 0.684094 0.492652 0.372324 -0.374255 0.394533 0.182979 -0.374255 0 0.182979 0 0.394533 0.182979 0.291886 0.198271 0.182979 0 0.198271 0 -0.701887 -0.417923 -0.452786 -0.381352 -0.417923 0 -0.381352 0 -0.452786 -0.381352 -0.418519 -0.720506 -0.381352 0 -0.720506 0 -0.841568 -0.944722 -0.856462 -0.819998 -0.944722 -0.961281 -0.819998 -0.757345 -0.856462 -0.819998 -0.962689 -0.943009 -0.819998 -0.757345 -0.943009 -0.906625 -0.961281 -0.92133 -0.757345 -0.712682 -0.92133 -0.801782 -0.712682 -0.631159 -0.757345 -0.712682 -0.906625 -0.832784 -0.712682 -0.631159 -0.832784 -0.61442 -0.801782 -0.636915 -0.631159 -0.472452 -0.636915 -0.418519 -0.472452 -0.312235 -0.631159 -0.472452 -0.61442 -0.448474 -0.472452 -0.312235 -0.448474 -0.354494 -0.962689 -0.943009 -1.08059 -1.01483 -0.943009 -0.906625 -1.01483 -0.904558 -1.08059 -1.01483 -1.17656 -1.12093 -1.01483 -0.904558 -1.12093 -1.02943 -0.61442 -0.448474 -0.642136 -0.498411 -0.448474 -0.354494 -0.498411 -0.347371 -0.642136 -0.498411 -0.690201 -0.643062 -0.498411 -0.347371 -0.643062 -0.404863 -0.354494 -0.171983 -0.347371 -0.162156 -0.171983 0 -0.162156 0 -0.347371 -0.162156 -0.404863 -0.195166 -0.162156 0 -0.195166 0 0.707107 0.793776 0.83147 0.732166 0.793776 0.667927 0.732166 0.504099 0.83147 0.732166 0.92388 0.61098 0.732166 0.504099 0.61098 0.336093 0.494794 0.302969 0.0879637 0.185262 0.302969 0.231603 0.185262 0.349872 0.0879637 0.185262 0.20772 0.212888 0.185262 0.349872 0.212888 0.118039 0.373852 0.30138 0.290785 0.191711 0.30138 0.220501 0.191711 0.098491 0.290785 0.191711 0.205918 0.107172 0.191711 0.098491 0.107172 0.0059986 0.421201 0.391537 0.10127 0.0151455 0.391537 0.249619 0.0151455 -0.044701 0.10127 0.0151455 0.00833888 -0.114465 0.0151455 -0.044701 -0.114465 -0.185021 0.220501 0.106148 0.098491 0.0164803 0.106148 0.00833888 0.0164803 -0.0758388 0.098491 0.0164803 0.0059986 -0.0936329 0.0164803 -0.0758388 -0.0936329 -0.18516 0.00833888 -0.114465 -0.0758388 -0.17275 -0.0758388 -0.17275 -0.18516 -0.267476 -0.17275 -0.282057 -0.267476 -0.350154 0.249619 0.165747 -0.044701 -0.103762 0.393795 0.294374 0.28624 0.197456 0.294374 0.201329 0.197456 0.105676 0.28624 0.197456 0.19928 0.0962044 0.197456 0.105676 0.0962044 -0.00216617 0.375093 0.286619 0.289212 0.190737 0.286619 0.205918 0.190737 0.0927952 0.289212 0.190737 0.201329 0.101712 0.190737 0.0927952 0.101712 -0.000224529 0.205918 0.107172 0.0927952 0.00209097 0.107172 0.0059986 0.00209097 -0.0901503 0.0927952 0.00209097 -0.000224529 -0.100902 0.00209097 -0.0901503 -0.100902 -0.197025 0.201329 0.101712 0.105676 0.00825147 0.101712 -0.000224529 0.00825147 -0.0910165 0.105676 0.00825147 -0.00216617 -0.0943169 0.00825147 -0.0910165 -0.0943169 -0.187157 -0.000224529 -0.100902 -0.0910165 -0.190663 -0.100902 -0.197025 -0.190663 -0.288714 -0.0910165 -0.190663 -0.187157 -0.281155 -0.190663 -0.288714 -0.281155 -0.374062 0.0059986 -0.0936329 -0.0901503 -0.187616 -0.0936329 -0.18516 -0.187616 -0.285408 -0.0901503 -0.187616 -0.197025 -0.286026 -0.187616 -0.285408 -0.286026 -0.373269 -0.18516 -0.267476 -0.285408 -0.378163 -0.285408 -0.378163 -0.373269 -0.46158 -0.197025 -0.286026 -0.288714 -0.382939 -0.286026 -0.373269 -0.382939 -0.469747 -0.288714 -0.382939 -0.374062 -0.464703 -0.382939 -0.469747 -0.464703 -0.551442 -0.373269 -0.46158 -0.469747 -0.54842 -0.469747 -0.54842 -0.551442 -0.631515 0.19928 0.0962044 0.104744 0.00698605 0.0962044 -0.00216617 0.00698605 -0.0928598 0.104744 0.00698605 0.00175488 -0.0935067 0.00698605 -0.0928598 -0.0935067 -0.187262 -0.00216617 -0.0943169 -0.0928598 -0.195131 -0.0943169 -0.187157 -0.195131 -0.290736 -0.0928598 -0.195131 -0.187262 -0.284756 -0.195131 -0.290736 -0.284756 -0.379952 -0.187157 -0.281155 -0.290736 -0.377929 -0.281155 -0.374062 -0.377929 -0.461987 -0.290736 -0.377929 -0.379952 -0.471595 -0.377929 -0.461987 -0.471595 -0.555322 -0.187262 -0.284756 -0.289182 -0.378548 -0.284756 -0.379952 -0.378548 -0.464415 -0.289182 -0.378548 -0.385899 -0.472667 -0.378548 -0.464415 -0.472667 -0.55208 -0.379952 -0.471595 -0.464415 -0.548676 -0.471595 -0.555322 -0.548676 -0.629852 -0.464415 -0.548676 -0.55208 -0.626371 -0.548676 -0.629852 -0.626371 -0.696658 -0.374062 -0.464703 -0.461987 -0.544762 -0.464703 -0.551442 -0.544762 -0.624661 -0.461987 -0.544762 -0.555322 -0.630273 -0.544762 -0.624661 -0.630273 -0.698985 -0.551442 -0.631515 -0.624661 -0.697777 -0.555322 -0.630273 -0.629852 -0.705571 -0.630273 -0.698985 -0.705571 -0.77053 -0.629852 -0.705571 -0.696658 -0.76391 -0.705571 -0.77053 -0.76391 -0.823095 -0.77053 -0.821717 -0.823095 -0.87401 -0.195923 -0.295526 -0.278874 -0.375129 -0.295526 -0.385899 -0.375129 -0.474462 -0.278874 -0.375129 -0.373243 -0.458287 -0.375129 -0.474462 -0.458287 -0.553555 -0.385899 -0.472667 -0.474462 -0.558856 -0.472667 -0.55208 -0.558856 -0.63607 -0.474462 -0.558856 -0.553555 -0.624356 -0.558856 -0.63607 -0.624356 -0.709608 -0.55208 -0.626371 -0.63607 -0.705147 -0.626371 -0.696658 -0.705147 -0.769049 -0.63607 -0.705147 -0.709608 -0.772133 -0.705147 -0.769049 -0.772133 -0.837285 -0.696658 -0.76391 -0.769049 -0.825401 -0.76391 -0.823095 -0.825401 -0.869134 -0.769049 -0.825401 -0.837285 -0.885042 -0.825401 -0.869134 -0.885042 -0.915289 -0.823095 -0.87401 -0.869134 -0.910525 -0.869134 -0.910525 -0.915289 -0.944736 -0.915289 -0.944736 -0.950462 -0.972845 -0.944736 -0.961554 -0.972845 -0.979661 -0.950462 -0.972845 -0.982782 -1.00684 -0.71277 -0.739603 -0.788294 -0.839984 -0.739603 -0.895076 -0.839984 -0.868753 -0.788294 -0.839984 -0.813428 -0.888868 -0.839984 -0.868753 -0.888868 -0.93397 -0.734261 -0.72682 -0.844365 -0.92444 -0.72682 -0.869206 -0.92444 -0.964533 -0.844365 