# vtk DataFile Version 3.0
#This file was generated by the deal.II library on 2020/5/26 at 20:15:22
ASCII
DATASET UNSTRUCTURED_GRID

POINTS 1948 double
-1 -1 0
-0.875 -1 0
-1 -0.875 0
-0.875 -0.875 0
-0.875 -1 0
-0.75 -1 0
-0.875 -0.875 0
-0.75 -0.875 0
-0.75 -1 0
-0.625 -1 0
-0.75 -0.875 0
-0.625 -0.875 0
-0.625 -1 0
-0.5 -1 0
-0.625 -0.875 0
-0.5 -0.875 0
-0.5 -1 0
-0.375 -1 0
-0.5 -0.875 0
-0.375 -0.875 0
-0.375 -1 0
-0.25 -1 0
-0.375 -0.875 0
-0.25 -0.875 0
-0.25 -1 0
-0.125 -1 0
-0.25 -0.875 0
-0.125 -0.875 0
-0.125 -1 0
0 -1 0
-0.125 -0.875 0
0 -0.875 0
0 -1 0
0.125 -1 0
0 -0.875 0
0.125 -0.875 0
0.125 -1 0
0.25 -1 0
0.125 -0.875 0
0.25 -0.875 0
0.25 -1 0
0.375 -1 0
0.25 -0.875 0
0.375 -0.875 0
0.375 -1 0
0.5 -1 0
0.375 -0.875 0
0.5 -0.875 0
0.5 -1 0
0.625 -1 0
0.5 -0.875 0
0.625 -0.875 0
0.625 -1 0
0.75 -1 0
0.625 -0.875 0
0.75 -0.875 0
0.75 -1 0
0.875 -1 0
0.75 -0.875 0
0.875 -0.875 0
0.875 -1 0
1 -1 0
0.875 -0.875 0
1 -0.875 0
-1 -0.875 0
-0.875 -0.875 0
-1 -0.75 0
-0.875 -0.75 0
-0.875 -0.875 0
-0.75 -0.875 0
-0.875 -0.75 0
-0.75 -0.75 0
-0.75 -0.875 0
-0.625 -0.875 0
-0.75 -0.75 0
-0.625 -0.75 0
-0.625 -0.875 0
-0.5 -0.875 0
-0.625 -0.75 0
-0.5 -0.75 0
-0.5 -0.875 0
-0.375 -0.875 0
-0.5 -0.75 0
-0.375 -0.75 0
-0.375 -0.875 0
-0.25 -0.875 0
-0.375 -0.75 0
-0.25 -0.75 0
-0.25 -0.875 0
-0.125 -0.875 0
-0.25 -0.75 0
-0.125 -0.75 0
-0.125 -0.875 0
0 -0.875 0
-0.125 -0.75 0
0 -0.75 0
0 -0.875 0
0.125 -0.875 0
0 -0.75 0
0.125 -0.75 0
0.125 -0.875 0
0.25 -0.875 0
0.125 -0.75 0
0.25 -0.75 0
0.25 -0.875 0
0.375 -0.875 0
0.25 -0.75 0
0.375 -0.75 0
0.375 -0.875 0
0.5 -0.875 0
0.375 -0.75 0
0.5 -0.75 0
0.5 -0.875 0
0.625 -0.875 0
0.5 -0.75 0
0.625 -0.75 0
0.625 -0.875 0
0.75 -0.875 0
0.625 -0.75 0
0.75 -0.75 0
0.875 -0.875 0
1 -0.875 0
0.875 -0.75 0
1 -0.75 0
-1 -0.75 0
-0.875 -0.75 0
-1 -0.625 0
-0.875 -0.625 0
-0.875 -0.75 0
-0.75 -0.75 0
-0.875 -0.625 0
-0.75 -0.625 0
-0.75 -0.75 0
-0.625 -0.75 0
-0.75 -0.625 0
-0.625 -0.625 0
-0.625 -0.75 0
-0.5 -0.75 0
-0.625 -0.625 0
-0.5 -0.625 0
-0.5 -0.75 0
-0.375 -0.75 0
-0.5 -0.625 0
-0.375 -0.625 0
-0.375 -0.75 0
-0.25 -0.75 0
-0.375 -0.625 0
-0.25 -0.625 0
-0.25 -0.75 0
-0.125 -0.75 0
-0.25 -0.625 0
-0.125 -0.625 0
-0.125 -0.75 0
0 -0.75 0
-0.125 -0.625 0
0 -0.625 0
0 -0.75 0
0.125 -0.75 0
0 -0.625 0
0.125 -0.625 0
0.125 -0.75 0
0.25 -0.75 0
0.125 -0.625 0
0.25 -0.625 0
0.25 -0.75 0
0.375 -0.75 0
0.25 -0.625 0
0.375 -0.625 0
0.375 -0.75 0
0.5 -0.75 0
0.375 -0.625 0
0.5 -0.625 0
0.5 -0.75 0
0.625 -0.75 0
0.5 -0.625 0
0.625 -0.625 0
0.625 -0.75 0
0.75 -0.75 0
0.625 -0.625 0
0.75 -0.625 0
0.75 -0.75 0
0.875 -0.75 0
0.75 -0.625 0
0.875 -0.625 0
0.875 -0.75 0
1 -0.75 0
0.875 -0.625 0
1 -0.625 0
-1 -0.625 0
-0.875 -0.625 0
-1 -0.5 0
-0.875 -0.5 0
-0.875 -0.625 0
-0.75 -0.625 0
-0.875 -0.5 0
-0.75 -0.5 0
-0.75 -0.625 0
-0.625 -0.625 0
-0.75 -0.5 0
-0.625 -0.5 0
-0.625 -0.625 0
-0.5 -0.625 0
-0.625 -0.5 0
-0.5 -0.5 0
-0.5 -0.625 0
-0.375 -0.625 0
-0.5 -0.5 0
-0.375 -0.5 0
-0.375 -0.625 0
-0.25 -0.625 0
-0.375 -0.5 0
-0.25 -0.5 0
-0.25 -0.625 0
-0.125 -0.625 0
-0.25 -0.5 0
-0.125 -0.5 0
-0.125 -0.625 0
0 -0.625 0
-0.125 -0.5 0
0 -0.5 0
0 -0.625 0
0.125 -0.625 0
0 -0.5 0
0.125 -0.5 0
0.125 -0.625 0
0.25 -0.625 0
0.125 -0.5 0
0.25 -0.5 0
0.25 -0.625 0
0.375 -0.625 0
0.25 -0.5 0
0.375 -0.5 0
0.375 -0.625 0
0.5 -0.625 0
0.375 -0.5 0
0.5 -0.5 0
0.5 -0.625 0
0.625 -0.625 0
0.5 -0.5 0
0.625 -0.5 0
0.625 -0.625 0
0.75 -0.625 0
0.625 -0.5 0
0.75 -0.5 0
0.75 -0.625 0
0.875 -0.625 0
0.75 -0.5 0
0.875 -0.5 0
0.875 -0.625 0
1 -0.625 0
0.875 -0.5 0
1 -0.5 0
-1 -0.5 0
-0.875 -0.5 0
-1 -0.375 0
-0.875 -0.375 0
-0.875 -0.5 0
-0.75 -0.5 0
-0.875 -0.375 0
-0.75 -0.375 0
-0.75 -0.5 0
-0.625 -0.5 0
-0.75 -0.375 0
-0.625 -0.375 0
-0.625 -0.5 0
-0.5 -0.5 0
-0.625 -0.375 0
-0.5 -0.375 0
-0.5 -0.5 0
-0.375 -0.5 0
-0.5 -0.375 0
-0.375 -0.375 0
-0.375 -0.5 0
-0.25 -0.5 0
-0.375 -0.375 0
-0.25 -0.375 0
-0.25 -0.5 0
-0.125 -0.5 0
-0.25 -0.375 0
-0.125 -0.375 0
-0.125 -0.5 0
0 -0.5 0
-0.125 -0.375 0
0 -0.375 0
0 -0.5 0
0.125 -0.5 0
0 -0.375 0
0.125 -0.375 0
0.125 -0.5 0
0.25 -0.5 0
0.125 -0.375 0
0.25 -0.375 0
0.25 -0.5 0
0.375 -0.5 0
0.25 -0.375 0
0.375 -0.375 0
0.375 -0.5 0
0.5 -0.5 0
0.375 -0.375 0
0.5 -0.375 0
0.5 -0.5 0
0.625 -0.5 0
0.5 -0.375 0
0.625 -0.375 0
0.625 -0.5 0
0.75 -0.5 0
0.625 -0.375 0
0.75 -0.375 0
0.75 -0.5 0
0.875 -0.5 0
0.75 -0.375 0
0.875 -0.375 0
0.875 -0.5 0
1 -0.5 0
0.875 -0.375 0
1 -0.375 0
-1 -0.375 0
-0.875 -0.375 0
-1 -0.25 0
-0.875 -0.25 0
-0.875 -0.375 0
-0.75 -0.375 0
-0.875 -0.25 0
-0.75 -0.25 0
-0.75 -0.375 0
-0.625 -0.375 0
-0.75 -0.25 0
-0.625 -0.25 0
-0.625 -0.375 0
-0.5 -0.375 0
-0.625 -0.25 0
-0.5 -0.25 0
-0.5 -0.375 0
-0.375 -0.375 0
-0.5 -0.25 0
-0.375 -0.25 0
-0.375 -0.375 0
-0.25 -0.375 0
-0.375 -0.25 0
-0.25 -0.25 0
-0.25 -0.375 0
-0.125 -0.375 0
-0.25 -0.25 0
-0.125 -0.25 0
-0.125 -0.375 0
0 -0.375 0
-0.125 -0.25 0
0 -0.25 0
0 -0.375 0
0.125 -0.375 0
0 -0.25 0
0.125 -0.25 0
0.125 -0.375 0
0.25 -0.375 0
0.125 -0.25 0
0.25 -0.25 0
0.25 -0.375 0
0.375 -0.375 0
0.25 -0.25 0
0.375 -0.25 0
0.375 -0.375 0
0.5 -0.375 0
0.375 -0.25 0
0.5 -0.25 0
0.5 -0.375 0
0.625 -0.375 0
0.5 -0.25 0
0.625 -0.25 0
0.625 -0.375 0
0.75 -0.375 0
0.625 -0.25 0
0.75 -0.25 0
0.75 -0.375 0
0.875 -0.375 0
0.75 -0.25 0
0.875 -0.25 0
0.875 -0.375 0
1 -0.375 0
0.875 -0.25 0
1 -0.25 0
-1 -0.25 0
-0.875 -0.25 0
-1 -0.125 0
-0.875 -0.125 0
-0.875 -0.25 0
-0.75 -0.25 0
-0.875 -0.125 0
-0.75 -0.125 0
-0.75 -0.25 0
-0.625 -0.25 0
-0.75 -0.125 0
-0.625 -0.125 0
-0.625 -0.25 0
-0.5 -0.25 0
-0.625 -0.125 0
-0.5 -0.125 0
-0.5 -0.25 0
-0.375 -0.25 0
-0.5 -0.125 0
-0.375 -0.125 0
-0.375 -0.25 0
-0.25 -0.25 0
-0.375 -0.125 0
-0.25 -0.125 0
-0.25 -0.25 0
-0.125 -0.25 0
-0.25 -0.125 0
-0.125 -0.125 0
-0.125 -0.25 0
0 -0.25 0
-0.125 -0.125 0
0 -0.125 0
0 -0.25 0
0.125 -0.25 0
0 -0.125 0
0.125 -0.125 0
0.125 -0.25 0
0.25 -0.25 0
0.125 -0.125 0
0.25 -0.125 0
0.25 -0.25 0
0.375 -0.25 0
0.25 -0.125 0
0.375 -0.125 0
0.375 -0.25 0
0.5 -0.25 0
0.375 -0.125 0
0.5 -0.125 0
0.875 -0.25 0
1 -0.25 0
0.875 -0.125 0
1 -0.125 0
-1 -0.125 0
-0.875 -0.125 0
-1 0 0
-0.875 0 0
-0.875 -0.125 0
-0.75 -0.125 0
-0.875 0 0
-0.75 0 0
-0.75 -0.125 0
-0.625 -0.125 0
-0.75 0 0
-0.625 0 0
-0.625 -0.125 0
-0.5 -0.125 0
-0.625 0 0
-0.5 0 0
-0.5 -0.125 0
-0.375 -0.125 0
-0.5 0 0
-0.375 0 0
-0.375 -0.125 0
-0.25 -0.125 0
-0.375 0 0
-0.25 0 0
-0.25 -0.125 0
-0.125 -0.125 0
-0.25 0 0
-0.125 0 0
-0.125 -0.125 0
0 -0.125 0
-0.125 0 0
0 0 0
0 -0.125 0
0.125 -0.125 0
0 0 0
0.125 0 0
0.875 -0.125 0
1 -0.125 0
0.875 0 0
1 0 0
-1 0 0
-0.875 0 0
-1 0.125 0
-0.875 0.125 0
-0.875 0 0
-0.75 0 0
-0.875 0.125 0
-0.75 0.125 0
-0.75 0 0
-0.625 0 0
-0.75 0.125 0
-0.625 0.125 0
-0.625 0 0
-0.5 0 0
-0.625 0.125 0
-0.5 0.125 0
-0.25 0 0
-0.125 0 0
-0.25 0.125 0
-0.125 0.125 0
-0.125 0 0
0 0 0
-0.125 0.125 0
0 0.125 0
0.875 0 0
1 0 0
0.875 0.125 0
1 0.125 0
-1 0.125 0
-0.875 0.125 0
-1 0.25 0
-0.875 0.25 0
-0.875 0.125 0
-0.75 0.125 0
-0.875 0.25 0
-0.75 0.25 0
-0.75 0.125 0
-0.625 0.125 0
-0.75 0.25 0
-0.625 0.25 0
-0.25 0.125 0
-0.125 0.125 0
-0.25 0.25 0
-0.125 0.25 0
-0.125 0.125 0
0 0.125 0
-0.125 0.25 0
0 0.25 0
0.875 0.125 0
1 0.125 0
0.875 0.25 0
1 0.25 0
-1 0.25 0
-0.875 0.25 0
-1 0.375 0
-0.875 0.375 0
-0.875 0.25 0
-0.75 0.25 0
-0.875 0.375 0
-0.75 0.375 0
-0.75 0.25 0
-0.625 0.25 0
-0.75 0.375 0
-0.625 0.375 0
-0.375 0.25 0
-0.25 0.25 0
-0.375 0.375 0
-0.25 0.375 0
-0.25 0.25 0
-0.125 0.25 0
-0.25 0.375 0
-0.125 0.375 0
-0.125 0.25 0
0 0.25 0
-0.125 0.375 0
0 0.375 0
0 0.25 0
0.125 0.25 0
0 0.375 0
0.125 0.375 0
0.625 0.25 0
0.75 0.25 0
0.625 0.375 0
0.75 0.375 0
0.75 0.25 0
0.875 0.25 0
0.75 0.375 0
0.875 0.375 0
0.875 0.25 0
1 0.25 0
0.875 0.375 0
1 0.375 0
-1 0.375 0
-0.875 0.375 0
-1 0.5 0
-0.875 0.5 0
-0.875 0.375 0
-0.75 0.375 0
-0.875 0.5 0
-0.75 0.5 0
-0.75 0.375 0
-0.625 0.375 0
-0.75 0.5 0
-0.625 0.5 0
-0.5 0.375 0
-0.375 0.375 0
-0.5 0.5 0
-0.375 0.5 0
-0.375 0.375 0
-0.25 0.375 0
-0.375 0.5 0
-0.25 0.5 0
-0.25 0.375 0
-0.125 0.375 0
-0.25 0.5 0
-0.125 0.5 0
-0.125 0.375 0
0 0.375 0
-0.125 0.5 0
0 0.5 0
0 0.375 0
0.125 0.375 0
0 0.5 0
0.125 0.5 0
0.5 0.375 0
0.625 0.375 0
0.5 0.5 0
0.625 0.5 0
0.625 0.375 0
0.75 0.375 0
0.625 0.5 0
0.75 0.5 0
0.75 0.375 0
0.875 0.375 0
0.75 0.5 0
0.875 0.5 0
0.875 0.375 0
1 0.375 0
0.875 0.5 0
1 0.5 0
-1 0.5 0
-0.875 0.5 0
-1 0.625 0
-0.875 0.625 0
-0.875 0.5 0
-0.75 0.5 0
-0.875 0.625 0
-0.75 0.625 0
-0.5 0.5 0
-0.375 0.5 0
-0.5 0.625 0
-0.375 0.625 0
-0.375 0.5 0
-0.25 0.5 0
-0.375 0.625 0
-0.25 0.625 0
-0.25 0.5 0
-0.125 0.5 0
-0.25 0.625 0
-0.125 0.625 0
-0.125 0.5 0
0 0.5 0
-0.125 0.625 0
0 0.625 0
0.5 0.5 0
0.625 0.5 0
0.5 0.625 0
0.625 0.625 0
0.625 0.5 0
0.75 0.5 0
0.625 0.625 0
0.75 0.625 0
0.75 0.5 0
0.875 0.5 0
0.75 0.625 0
0.875 0.625 0
0.875 0.5 0
1 0.5 0
0.875 0.625 0
1 0.625 0
-1 0.625 0
-0.875 0.625 0
-1 0.75 0
-0.875 0.75 0
-0.5 0.625 0
-0.375 0.625 0
-0.5 0.75 0
-0.375 0.75 0
-0.375 0.625 0
-0.25 0.625 0
-0.375 0.75 0
-0.25 0.75 0
-0.25 0.625 0
-0.125 0.625 0
-0.25 0.75 0
-0.125 0.75 0
0.625 0.625 0
0.75 0.625 0
0.625 0.75 0
0.75 0.75 0
0.75 0.625 0
0.875 0.625 0
0.75 0.75 0
0.875 0.75 0
0.875 0.625 0
1 0.625 0
0.875 0.75 0
1 0.75 0
-1 0.75 0
-0.875 0.75 0
-1 0.875 0
-0.875 0.875 0
-0.5 0.75 0
-0.375 0.75 0
-0.5 0.875 0
-0.375 0.875 0
-0.375 0.75 0
-0.25 0.75 0
-0.375 0.875 0
-0.25 0.875 0
-1 0.875 0
-0.875 0.875 0
-1 1 0
-0.875 1 0
-0.625 0.875 0
-0.5 0.875 0
-0.625 1 0
-0.5 1 0
-0.5 0.875 0
-0.375 0.875 0
-0.5 1 0
-0.375 1 0
-0.375 0.875 0
-0.25 0.875 0
-0.375 1 0
-0.25 1 0
-0.25 0.875 0
-0.125 0.875 0
-0.25 1 0
-0.125 1 0
0.875 0.875 0
1 0.875 0
0.875 1 0
1 1 0
0.75 -0.875 0
0.8125 -0.875 0
0.75 -0.8125 0
0.8125 -0.8125 0
0.8125 -0.875 0
0.875 -0.875 0
0.8125 -0.8125 0
0.875 -0.8125 0
0.75 -0.8125 0
0.8125 -0.8125 0
0.75 -0.75 0
0.8125 -0.75 0
0.8125 -0.8125 0
0.875 -0.8125 0
0.8125 -0.75 0
0.875 -0.75 0
0.5 -0.25 0
0.5625 -0.25 0
0.5 -0.1875 0
0.5625 -0.1875 0
0.5625 -0.25 0
0.625 -0.25 0
0.5625 -0.1875 0
0.625 -0.1875 0
0.5 -0.1875 0
0.5625 -0.1875 0
0.5 -0.125 0
0.5625 -0.125 0
[...]
POINT_DATA 1948
SCALARS solution double 1
LOOKUP_TABLE default
1 0.92388 0.92388 0.749563 0.92388 0.707107 0.749563 0.453189 0.707107 0.382683 0.453189 0.0501878 0.382683 -1.83697e-16 0.0501878 -0.401626 -1.83697e-16 -0.382683 -0.401626 -0.829249 -0.382683 -0.707107 -0.829249 -1.14642 -0.707107 -0.92388 -1.14642 -1.32115 -0.92388 -1 -1.32115 -1.34868 -1 -0.92388 -1.34868 -1.23846 -0.92388 -0.707107 -1.23846 -1.03734 -0.707107 -0.382683 -1.03734 -0.787996 -0.382683 6.12323e-17 -0.787996 -0.500597 6.12323e-17 0.382683 -0.500597 -0.209821 0.382683 0.707107 -0.209821 0.00232362 0.707107 0.92388 0.00232362 0.137537 0.92388 0 0.137537 0 0.92388 0.749563 0.707107 0.0732724 0.749563 0.453189 0.0732724 -0.460205 0.453189 0.0501878 -0.460205 -0.842972 0.0501878 -0.401626 -0.842972 -1.1862 -0.401626 -0.829249 -1.1862 -1.42851 -0.829249 -1.14642 -1.42851 -1.51817 -1.14642 -1.32115 -1.51817 -1.44834 -1.32115 -1.34868 -1.44834 -1.20212 -1.34868 -1.23846 -1.20212 -0.839771 -1.23846 -1.03734 -0.839771 -0.454233 -1.03734 -0.787996 -0.454233 -0.0957283 -0.787996 -0.500597 -0.0957283 0.196797 -0.500597 -0.209821 0.196797 0.349357 -0.209821 0.00232362 0.349357 0.334298 0.137537 0 0.145268 0 0.707107 0.0732724 0.382683 0.143609 0.0732724 -0.460205 0.143609 -0.282286 -0.460205 -0.842972 -0.282286 -0.883425 -0.842972 -1.1862 -0.883425 -1.26641 -1.1862 -1.42851 -1.26641 -1.35075 -1.42851 -1.51817 -1.35075 -1.29303 -1.51817 -1.44834 -1.29303 -1.09604 -1.44834 -1.20212 -1.09604 -0.77276 -1.20212 -0.839771 -0.77276 -0.408663 -0.839771 -0.454233 -0.408663 -0.0382191 -0.454233 -0.0957283 -0.0382191 0.303514 -0.0957283 0.196797 0.303514 0.55859 0.196797 0.349357 0.55859 0.625586 0.349357 0.334298 0.625586 0.540906 0.334298 0.145268 0.540906 0.342275 0.145268 0 0.342275 0 0.382683 0.143609 -1.83697e-16 -0.30901 0.143609 -0.282286 -0.30901 -0.591077 -0.282286 -0.883425 -0.591077 -0.715026 -0.883425 -1.26641 -0.715026 -0.842797 -1.26641 -1.35075 -0.842797 -1.00289 -1.35075 -1.29303 -1.00289 -0.906958 -1.29303 -1.09604 -0.906958 -0.523635 -1.09604 -0.77276 -0.523635 -0.0970137 -0.77276 -0.408663 -0.0970137 0.285405 -0.408663 -0.0382191 0.285405 0.596669 -0.0382191 0.303514 0.596669 0.817138 0.303514 0.55859 0.817138 0.92888 0.55859 0.625586 0.92888 0.817604 0.625586 0.540906 0.817604 0.66356 0.540906 0.342275 0.66356 0.401525 0.342275 0 0.401525 0 -1.83697e-16 -0.30901 -0.382683 -0.583048 -0.30901 -0.591077 -0.583048 -0.704679 -0.591077 -0.715026 -0.704679 -0.730699 -0.715026 -0.842797 -0.730699 -0.606479 -0.842797 -1.00289 -0.606479 -0.300008 -1.00289 -0.906958 -0.300008 0.0163173 -0.906958 -0.523635 0.0163173 0.241869 -0.523635 -0.0970137 0.241869 0.531821 -0.0970137 0.285405 0.531821 0.906515 0.285405 0.596669 0.906515 1.1404 0.596669 0.817138 1.1404 1.26459 0.817138 0.92888 1.26459 1.22681 0.92888 0.817604 1.22681 0.955078 0.817604 0.66356 0.955078 0.709903 0.66356 0.401525 0.709903 0.342607 0.401525 0 0.342607 0 -0.382683 -0.583048 -0.707107 -0.811385 -0.583048 -0.704679 -0.811385 -0.776939 -0.704679 -0.730699 -0.776939 -0.588824 -0.730699 -0.606479 -0.588824 -0.280092 -0.606479 -0.300008 -0.280092 0.121425 -0.300008 0.0163173 0.121425 0.632916 0.0163173 0.241869 0.632916 1.1537 0.241869 0.531821 1.1537 1.47923 0.531821 0.906515 1.47923 1.5451 0.906515 1.1404 1.5451 1.51096 1.1404 1.26459 1.51096 1.50068 1.26459 1.22681 1.50068 1.29859 1.22681 0.955078 1.29859 1.24355 0.955078 0.709903 1.24355 0.720107 0.709903 0.342607 0.720107 0.24161 0.342607 0 0.24161 0 -0.707107 -0.811385 -0.92388 -0.915748 -0.811385 -0.776939 -0.915748 -0.733735 -0.776939 -0.588824 -0.733735 -0.447307 -0.588824 -0.280092 -0.447307 -0.0364304 -0.280092 0.121425 -0.0364304 0.463288 0.121425 0.632916 0.463288 0.953795 0.632916 1.1537 0.953795 1.34198 1.1537 1.47923 1.34198 1.65421 1.47923 1.5451 1.65421 1.80096 1.5451 1.51096 1.80096 1.88874 1.51096 1.50068 1.88874 1.41366 1.50068 1.29859 1.41366 1.00772 0.24161 0 0.143765 0 -0.92388 -0.915748 -1 -0.970156 -0.915748 -0.733735 -0.970156 -0.773407 -0.733735 -0.447307 -0.773407 -0.426089 -0.447307 -0.0364304 -0.426089 0.0884884 -0.0364304 0.463288 0.0884884 0.642059 0.463288 0.953795 0.642059 1.03289 0.953795 1.34198 1.03289 1.37128 1.34198 1.65421 1.37128 1.61372 1.65421 1.80096 1.61372 1.66496 0.143765 0 0.0728516 0 -1 -0.970156 -0.92388 -0.718556 -0.970156 -0.773407 -0.718556 -0.458549 -0.773407 -0.426089 -0.458549 -0.162201 -0.426089 0.0884884 -0.162201 0.347694 1.03289 1.37128 1.04716 1.25146 1.37128 1.61372 1.25146 1.39858 0.0728516 0 0.160399 0 -0.92388 -0.718556 -0.707107 -0.387575 -0.718556 -0.458549 -0.387575 -0.0546512 -0.458549 -0.162201 -0.0546512 0.279747 1.04716 1.25146 0.949601 1.02995 1.25146 1.39858 1.02995 1.00304 0.160399 0 0.0696902 0 -0.707107 -0.387575 -0.382683 -0.0254669 -0.387575 -0.0546512 -0.0254669 0.286262 -0.0546512 0.279747 0.286262 0.612593 0.799715 0.949601 0.895005 0.850047 0.949601 1.02995 0.850047 0.737613 1.02995 1.00304 0.737613 0.432568 1.00304 0.677919 0.432568 -0.0123828 -0.118307 -0.0382282 -0.490819 -0.348382 -0.0382282 0.0696902 -0.348382 -0.232699 0.0696902 0 -0.232699 0 -0.382683 -0.0254669 6.12323e-17 0.274965 -0.0254669 0.286262 0.274965 0.517732 0.286262 0.612593 0.517732 0.810826 0.896381 0.895005 0.934252 0.752504 0.895005 0.850047 0.752504 0.670995 0.850047 0.737613 0.670995 0.430218 0.737613 0.432568 0.430218 -0.0651484 0.432568 -0.0123828 -0.0651484 -0.603916 -0.478649 -0.490819 -1.03908 -0.793034 -0.490819 -0.348382 -0.793034 -0.553744 -0.348382 -0.232699 -0.553744 -0.340229 -0.232699 0 -0.340229 0 6.12323e-17 0.274965 0.382683 0.524069 0.274965 0.517732 0.524069 0.776576 0.934252 0.752504 0.733404 0.52824 0.752504 0.670995 0.52824 0.390927 0.670995 0.430218 0.390927 0.00842276 0.430218 -0.0651484 0.00842276 -0.402066 -1.03908 -0.793034 -1.47457 -1.064 -0.793034 -0.553744 -1.064 -0.798196 -0.553744 -0.340229 -0.798196 -0.449902 -0.340229 0 -0.449902 0 0.382683 0.524069 0.707107 0.57181 0.733404 0.52824 0.55842 0.327518 0.52824 0.390927 0.327518 0.142795 0.390927 0.00842276 0.142795 -0.208336 -1.064 -0.798196 -1.19455 -0.934234 -0.798196 -0.449902 -0.934234 -0.499041 -0.449902 0 -0.499041 0 0.707107 0.57181 0.92388 0.359409 0.55842 0.327518 0.347057 0.121923 0.327518 0.142795 0.121923 0.0632686 0.92388 0.359409 0 0 0.486419 0.347057 0 0 0.347057 0.121923 0 0 0.121923 0.0632686 0 0 0.0632686 -0.0895947 0 0 0.399219 0 0 0 0.00232362 1.54007 0.359184 0.422392 1.54007 0.137537 0.422392 0.217787 0.359184 0.422392 0.334298 1.32714 0.422392 0.217787 1.32714 0.145268 1.29859 0.0987922 0.859915 1.15711 0.0987922 1.24355 1.15711 0.850457 0.859915 1.15711 1.00772 0.647243 1.15711 0.850457 0.647243 0.393727 1.24355 -0.0721723 0.850457 0.509101 -0.0721723 0.720107 0.509101 0.61107 0.850457 0.509101 0.393727 0.620461 0.509101 0.61107 0.620461 0.293039 0.720107 -0.52222 0.61107 0.433052 -0.52222 0.24161 0.433052 0.244077 0.61107 0.433052 0.293039 0.139229 0.433052 0.244077 0.139229 0.143765 1.80096 1.05418 1.50691 1.78503 1.05418 1.88874 1.78503 1.6164 1.50691 1.78503 1.66496 1.50263 1.78503 1.6164 1.50263 1.31339 1.88874 0.863689 1.6164 1.37138 0.863689 1.41366 1.37138 1.36426 1.6164 1.37138 1.31339 1.42757 1.37138 1.36426 1.42757 1.17037 1.41366 0.355034 1.36426 1.16196 0.355034 1.00772 1.16196 0.902055 1.36426 1.16196 1.17037 1.00731 1.16196 0.902055 1.00731 0.821618 1.00772 0.647243 0.902055 0.643464 0.647243 0.393727 0.643464 0.587885 0.902055 0.643464 0.821618 0.681184 0.643464 0.587885 0.681184 0.387952 0.393727 0.620461 0.587885 0.313109 0.620461 0.293039 0.313109 0.168224 0.587885 0.313109 0.387952 0.207197 0.313109 0.168224 0.207197 0.153558 0.293039 0.139229 0.168224 0.257379 0.139229 0.143765 0.257379 0.106763 0.168224 0.257379 0.153558 0.0343254 0.257379 0.106763 0.0343254 0.0728516 0.0884884 0.00171402 0.18087 0.486492 0.00171402 0.642059 0.486492 0.65909 0.18087 0.486492 0.347694 0.474138 0.486492 0.65909 0.474138 0.696126 0.642059 0.492246 0.65909 0.858078 0.492246 1.03289 0.858078 1.07745 0.65909 0.858078 0.696126 0.999629 0.858078 1.07745 0.999629 1.04716 1.61372 1.08304 1.36154 1.51554 1.08304 1.66496 1.51554 1.46465 1.36154 1.51554 1.39858 1.31849 1.51554 1.46465 1.31849 1.20561 1.66496 1.50263 1.46465 1.31664 1.50263 1.31339 1.31664 1.28551 1.46465 1.31664 1.20561 1.21229 1.31664 1.28551 1.21229 0.976164 1.31339 1.42757 1.28551 1.07948 1.42757 1.17037 1.07948 0.966805 1.28551 1.07948 0.976164 0.805608 1.07948 0.966805 0.805608 0.771236 1.17037 1.00731 0.966805 0.977497 1.00731 0.821618 0.977497 0.761097 0.966805 0.977497 0.771236 0.572028 0.977497 0.761097 0.572028 0.427758 0.821618 0.681184 0.761097 0.522998 0.681184 0.387952 0.522998 0.386524 0.761097 0.522998 0.427758 0.403515 0.522998 0.386524 0.403515 0.286368 0.387952 0.207197 0.386524 0.256806 0.207197 0.153558 0.256806 0.00692981 0.386524 0.256806 0.286368 0.170488 0.256806 0.00692981 0.170488 0.18092 0.153558 0.0343254 0.00692981 -0.0547361 0.0343254 0.0728516 -0.0547361 -0.0811609 0.00692981 -0.0547361 0.18092 0.251853 -0.0547361 -0.0811609 0.251853 0.160399 -0.162201 -0.139155 0.198807 0.297524 -0.139155 0.347694 0.297524 0.32254 0.198807 0.297524 0.279747 0.438317 0.297524 0.32254 0.438317 0.602214 0.347694 0.474138 0.32254 0.540439 0.474138 0.696126 0.540439 0.844168 0.32254 0.540439 0.602214 0.745381 0.540439 0.844168 0.745381 0.799715 0.696126 0.999629 0.844168 0.909997 0.999629 1.04716 0.909997 1.07995 0.844168 0.909997 0.799715 0.610377 0.909997 1.07995 0.610377 0.949601 1.39858 1.31849 1.02582 1.10039 1.31849 1.20561 1.10039 1.20473 1.02582 1.10039 1.00304 0.621763 1.10039 1.20473 0.621763 0.677919 1.20561 1.21229 1.20473 0.915718 1.21229 0.976164 0.915718 0.71962 1.20473 0.915718 0.677919 0.434519 0.915718 0.71962 0.434519 0.456136 0.976164 0.805608 0.71962 0.747644 0.805608 0.771236 0.747644 0.595007 0.71962 0.747644 0.456136 0.345043 0.747644 0.595007 0.345043 0.188854 0.771236 0.572028 0.595007 0.371895 0.572028 0.427758 0.371895 0.226533 0.595007 0.371895 0.188854 0.14032 0.371895 0.226533 0.14032 0.0472332 0.427758 0.403515 0.226533 0.0352772 0.403515 0.286368 0.0352772 -0.133261 0.226533 0.0352772 0.0472332 -0.0644189 0.0352772 -0.133261 -0.0644189 -0.118307 0.286368 0.170488 -0.133261 -0.279858 0.170488 0.18092 -0.279858 -0.107101 -0.133261 -0.279858 -0.118307 -0.884847 -0.279858 -0.107101 -0.884847 -0.0382282 0.18092 0.251853 -0.107101 -0.279423 0.251853 0.160399 -0.279423 -0.0596279 -0.107101 -0.279423 -0.0382282 -0.859833 -0.279423 -0.0596279 -0.859833 0.0696902 0.279747 0.438317 0.619278 0.59797 0.438317 0.602214 0.59797 0.624927 0.619278 0.59797 0.612593 0.733779 0.59797 0.624927 0.733779 0.896381 0.602214 0.745381 0.624927 0.844405 0.745381 0.799715 0.844405 1.03978 0.624927 0.844405 0.896381 0.854814 0.844405 1.03978 0.854814 0.895005 0.677919 0.434519 0.284705 0.188644 0.434519 0.456136 0.188644 0.0979913 0.284705 0.188644 -0.0123828 -0.14253 0.188644 0.0979913 -0.14253 -0.255851 0.456136 0.345043 0.0979913 -0.0368422 0.345043 0.188854 -0.0368422 -0.148666 0.0979913 -0.0368422 -0.255851 -0.304508 -0.0368422 -0.148666 -0.304508 -0.414536 0.188854 0.14032 -0.148666 -0.343966 0.14032 0.0472332 -0.343966 -0.500091 -0.148666 -0.343966 -0.414536 -0.490071 -0.343966 -0.500091 -0.490071 -0.478649 0.0472332 -0.0644189 -0.500091 -0.634677 -0.0644189 -0.118307 -0.634677 -0.561947 -0.500091 -0.634677 -0.478649 -0.901468 -0.634677 -0.561947 -0.901468 -0.490819 0.612593 0.733779 0.839931 0.975293 0.733779 0.896381 0.975293 0.949792 0.839931 0.975293 0.810826 0.851812 0.975293 0.949792 0.851812 0.934252 -0.0123828 -0.14253 -0.361035 -0.460913 -0.14253 -0.255851 -0.460913 -0.456627 -0.361035 -0.460913 -0.603916 -0.545843 -0.460913 -0.456627 -0.545843 -0.759907 -0.255851 -0.304508 -0.456627 -0.66792 -0.304508 -0.414536 -0.66792 -0.909619 -0.456627 -0.66792 -0.759907 -0.926661 -0.66792 -0.909619 -0.926661 -0.945009 -0.414536 -0.490071 -0.909619 -1.00731 -0.490071 -0.478649 -1.00731 -1.06303 -0.909619 -1.00731 -0.945009 -0.989449 -1.00731 -1.06303 -0.989449 -1.03908 0.517732 0.573321 0.807516 0.820818 0.573321 0.810826 0.820818 0.721663 0.807516 0.820818 0.776576 0.792435 0.820818 0.721663 0.792435 0.744931 0.810826 0.851812 0.721663 0.750507 0.851812 0.934252 0.750507 0.86668 0.721663 0.750507 0.744931 0.697299 0.750507 0.86668 0.697299 0.733404 -0.0651484 -0.273992 -0.444232 -0.437754 -0.273992 -0.603916 -0.437754 -0.434021 -0.444232 -0.437754 -0.402066 -0.41621 -0.437754 -0.434021 -0.41621 -0.764732 -0.603916 -0.545843 -0.434021 -0.71925 -0.545843 -0.759907 -0.71925 -0.929033 -0.434021 -0.71925 -0.764732 -0.768054 -0.71925 -0.929033 -0.768054 -0.850686 -0.759907 -0.926661 -0.929033 -1.09319 -0.926661 -0.945009 -1.09319 -1.32224 -0.929033 -1.09319 -0.850686 -1.20406 -1.09319 -1.32224 -1.20406 -1.31802 -0.945009 -0.989449 -1.32224 -1.40289 -0.989449 -1.03908 -1.40289 -1.39315 -1.32224 -1.40289 -1.31802 -1.33406 -1.40289 -1.39315 -1.33406 -1.47457 0.524069 0.649084 0.91315 0.820687 0.649084 0.776576 0.820687 0.759254 0.91315 0.820687 0.57181 0.862952 0.820687 0.759254 0.862952 1.01658 0.776576 0.792435 0.759254 0.680366 0.792435 0.744931 0.680366 0.496189 0.759254 0.680366 1.01658 0.651568 0.680366 0.496189 0.651568 0.416983 0.744931 0.697299 0.496189 0.551503 0.697299 0.733404 0.551503 0.672512 0.496189 0.551503 0.416983 0.587018 0.551503 0.672512 0.587018 0.55842 0.00842276 -0.117708 -0.55422 -0.200531 -0.117708 -0.402066 -0.200531 -0.236716 -0.55422 -0.200531 -0.208336 -0.0931164 -0.200531 -0.236716 -0.0931164 -0.887727 -0.402066 -0.41621 -0.236716 -0.677276 -0.41621 -0.764732 -0.677276 -0.506976 -0.236716 -0.677276 -0.887727 -0.671679 -0.677276 -0.506976 -0.671679 -0.257029 -0.764732 -0.768054 -0.506976 -0.459493 -0.768054 -0.850686 -0.459493 -0.925971 -0.506976 -0.459493 -0.257029 -0.704559 -0.459493 -0.925971 -0.704559 -0.892827 -0.850686 -1.20406 -0.925971 -1.02122 -1.20406 -1.31802 -1.02122 -0.948605 -0.925971 -1.02122 -0.892827 -0.759819 -1.02122 -0.948605 -0.759819 -0.951509 -1.31802 -1.33406 -0.948605 -1.17875 -1.33406 -1.47457 -1.17875 -1.33922 -0.948605 -1.17875 -0.951509 -1.07894 -1.17875 -1.33922 -1.07894 -1.03227 -1.47457 -0.683867 -1.33922 -1.23321 -0.683867 -1.064 -1.23321 -1.23244 -1.33922 -1.23321 -1.03227 -1.13878 -1.23321 -1.23244 -1.13878 -1.19455 0.57181 0.862952 1.20913 1.04735 0.862952 1.01658 1.04735 0.584116 1.20913 1.04735 0.359409 0.809164 1.04735 0.584116 0.809164 0.781171 1.01658 0.651568 0.584116 0.392857 0.651568 0.416983 0.392857 0.563953 0.584116 0.392857 0.781171 0.370332 0.392857 0.563953 0.370332 0.486419 0.416983 0.587018 0.563953 0.612919 0.587018 0.55842 0.612919 0.402426 0.563953 0.612919 0.486419 0.224384 0.612919 0.402426 0.224384 0.347057 0.142795 -0.10889 -0.628147 -0.246765 -0.10889 -0.208336 -0.246765 0.216119 -0.628147 -0.246765 0.0632686 0.185088 -0.246765 0.216119 0.185088 -0.0895947 -0.208336 -0.0931164 0.216119 -0.677675 -0.0931164 -0.887727 -0.677675 -0.855316 0.216119 -0.677675 -0.0895947 -1.02558 -0.677675 -0.855316 -1.02558 -0.151936 -0.887727 -0.671679 -0.855316 -0.226462 -0.671679 -0.257029 -0.226462 -0.528137 -0.855316 -0.226462 -0.151936 0.0713491 -0.226462 -0.528137 0.0713491 -0.407867 -0.257029 -0.704559 -0.528137 -0.809074 -0.704559 -0.892827 -0.809074 -0.552239 -0.528137 -0.809074 -0.407867 -0.420146 -0.809074 -0.552239 -0.420146 -0.410764 -0.892827 -0.759819 -0.552239 -0.555624 -0.759819 -0.951509 -0.555624 -0.619138 -0.552239 -0.555624 -0.410764 -0.483489 -0.555624 -0.619138 -0.483489 -0.394947 -0.951509 -1.07894 -0.619138 -0.49589 -1.07894 -1.03227 -0.49589 -0.472576 -0.619138 -0.49589 -0.394947 -0.361392 -0.49589 -0.472576 -0.361392 -0.344888 -1.03227 -1.13878 -0.472576 -0.456065 -1.13878 -1.19455 -0.456065 -0.381805 -0.472576 -0.456065 -0.344888 -0.253012 -0.456065 -0.381805 -0.253012 -0.22394 -1.19455 -0.141461 -0.381805 -0.28734 -0.141461 -0.934234 -0.28734 -0.244862 -0.381805 -0.28734 -0.22394 -0.174418 -0.28734 -0.244862 -0.174418 0.0551284 -0.934234 0.0366714 -0.244862 -0.0648204 0.0366714 -0.499041 -0.0648204 -0.0595569 -0.244862 -0.0648204 0.0551284 0.137722 -0.0648204 -0.0595569 0.137722 0.399219 -0.499041 0.335204 -0.0595569 0.116733 0.335204 0 0.116733 0 -0.0595569 0.116733 0.399219 0.0560822 0.116733 0 0.0560822 0 0.359409 0.809164 1.43845 0.549418 0.809164 0.781171 0.549418 -0.529818 1.43845 0.549418 0 0 0.549418 -0.529818 0 0 0.781171 0.370332 -0.529818 -0.141174 0.370332 0.486419 -0.141174 0.669419 -0.529818 -0.141174 0 0 -0.141174 0.669419 0 0 -0.0895947 -1.02558 -1.39797 -0.49409 -1.02558 -0.151936 -0.49409 0.311076 -1.39797 -0.49409 0 0 -0.49409 0.311076 0 0 -0.151936 0.0713491 0.311076 -0.0829688 0.0713491 -0.407867 -0.0829688 -0.204444 0.311076 -0.0829688 0 0 -0.0829688 -0.204444 0 0 -0.407867 -0.420146 -0.204444 -0.0338724 -0.420146 -0.410764 -0.0338724 -0.0440979 -0.204444 -0.0338724 0 0 -0.0338724 -0.0440979 0 0 -0.410764 -0.483489 -0.0440979 -0.0712474 -0.483489 -0.394947 -0.0712474 -0.0676821 -0.0440979 -0.0712474 0 0 -0.0712474 -0.0676821 0 0 -0.394947 -0.361392 -0.0676821 -0.0232562 -0.361392 -0.344888 -0.0232562 0.0663756 -0.0676821 -0.0232562 0 0 -0.0232562 0.0663756 0 0 -0.344888 -0.253012 0.0663756 0.0525736 -0.253012 -0.22394 0.0525736 -0.0505851 0.0663756 0.0525736 0 0 0.0525736 -0.0505851 0 0 -0.22394 -0.174418 -0.0505851 -0.136861 -0.174418 0.0551284 -0.136861 -0.213967 -0.0505851 -0.136861 0 0 -0.136861 -0.213967 0 0 0.0551284 0.137722 -0.213967 -0.270718 0.137722 0.399219 -0.270718 -0.277903 -0.213967 -0.270718 0 0 -0.270718 -0.277903 0 0 
