# vtk DataFile Version 3.0
#This file was generated by the deal.II library on 2020/5/26 at 20:15:10
ASCII
DATASET UNSTRUCTURED_GRID

POINTS 1948 double
-1 -1 0
-0.875 -1 0
-1 -0.875 0
-0.875 -0.875 0
-0.875 -1 0
-0.75 -1 0
-0.875 -0.875 0
-0.75 -0.875 0
-0.75 -1 0
-0.625 -1 0
-0.75 -0.875 0
-0.625 -0.875 0
-0.625 -1 0
-0.5 -1 0
-0.625 -0.875 0
-0.5 -0.875 0
-0.5 -1 0
-0.375 -1 0
-0.5 -0.875 0
-0.375 -0.875 0
-0.375 -1 0
-0.25 -1 0
-0.375 -0.875 0
-0.25 -0.875 0
-0.25 -1 0
-0.125 -1 0
-0.25 -0.875 0
-0.125 -0.875 0
-0.125 -1 0
0 -1 0
-0.125 -0.875 0
0 -0.875 0
0 -1 0
0.125 -1 0
0 -0.875 0
0.125 -0.875 0
0.625 -1 0
0.75 -1 0
0.625 -0.875 0
0.75 -0.875 0
0.75 -1 0
0.875 -1 0
0.75 -0.875 0
0.875 -0.875 0
0.875 -1 0
1 -1 0
0.875 -0.875 0
1 -0.875 0
-1 -0.875 0
-0.875 -0.875 0
-1 -0.75 0
-0.875 -0.75 0
-0.875 -0.875 0
-0.75 -0.875 0
-0.875 -0.75 0
-0.75 -0.75 0
-0.75 -0.875 0
-0.625 -0.875 0
-0.75 -0.75 0
-0.625 -0.75 0
-0.625 -0.875 0
-0.5 -0.875 0
-0.625 -0.75 0
-0.5 -0.75 0
-0.5 -0.875 0
-0.375 -0.875 0
-0.5 -0.75 0
-0.375 -0.75 0
-0.375 -0.875 0
-0.25 -0.875 0
-0.375 -0.75 0
-0.25 -0.75 0
-0.25 -0.875 0
-0.125 -0.875 0
-0.25 -0.75 0
-0.125 -0.75 0
-0.125 -0.875 0
0 -0.875 0
-0.125 -0.75 0
0 -0.75 0
0 -0.875 0
0.125 -0.875 0
0 -0.75 0
0.125 -0.75 0
0.125 -0.875 0
0.25 -0.875 0
0.125 -0.75 0
0.25 -0.75 0
0.5 -0.875 0
0.625 -0.875 0
0.5 -0.75 0
0.625 -0.75 0
0.625 -0.875 0
0.75 -0.875 0
0.625 -0.75 0
0.75 -0.75 0
0.75 -0.875 0
0.875 -0.875 0
0.75 -0.75 0
0.875 -0.75 0
0.875 -0.875 0
1 -0.875 0
0.875 -0.75 0
1 -0.75 0
-0.75 -0.75 0
-0.625 -0.75 0
-0.75 -0.625 0
-0.625 -0.625 0
-0.625 -0.75 0
-0.5 -0.75 0
-0.625 -0.625 0
-0.5 -0.625 0
-0.5 -0.75 0
-0.375 -0.75 0
-0.5 -0.625 0
-0.375 -0.625 0
-0.375 -0.75 0
-0.25 -0.75 0
-0.375 -0.625 0
-0.25 -0.625 0
-0.25 -0.75 0
-0.125 -0.75 0
-0.25 -0.625 0
-0.125 -0.625 0
-0.125 -0.75 0
0 -0.75 0
-0.125 -0.625 0
0 -0.625 0
0 -0.75 0
0.125 -0.75 0
0 -0.625 0
0.125 -0.625 0
0.125 -0.75 0
0.25 -0.75 0
0.125 -0.625 0
0.25 -0.625 0
0.25 -0.75 0
0.375 -0.75 0
0.25 -0.625 0
0.375 -0.625 0
0.375 -0.75 0
0.5 -0.75 0
0.375 -0.625 0
0.5 -0.625 0
0.5 -0.75 0
0.625 -0.75 0
0.5 -0.625 0
0.625 -0.625 0
0.625 -0.75 0
0.75 -0.75 0
0.625 -0.625 0
0.75 -0.625 0
0.75 -0.75 0
0.875 -0.75 0
0.75 -0.625 0
0.875 -0.625 0
0.875 -0.75 0
1 -0.75 0
0.875 -0.625 0
1 -0.625 0
-0.875 -0.625 0
-0.75 -0.625 0
-0.875 -0.5 0
-0.75 -0.5 0
-0.75 -0.625 0
-0.625 -0.625 0
-0.75 -0.5 0
-0.625 -0.5 0
-0.625 -0.625 0
-0.5 -0.625 0
-0.625 -0.5 0
-0.5 -0.5 0
-0.5 -0.625 0
-0.375 -0.625 0
-0.5 -0.5 0
-0.375 -0.5 0
-0.375 -0.625 0
-0.25 -0.625 0
-0.375 -0.5 0
-0.25 -0.5 0
-0.25 -0.625 0
-0.125 -0.625 0
-0.25 -0.5 0
-0.125 -0.5 0
-0.125 -0.625 0
0 -0.625 0
-0.125 -0.5 0
0 -0.5 0
0 -0.625 0
0.125 -0.625 0
0 -0.5 0
0.125 -0.5 0
0.125 -0.625 0
0.25 -0.625 0
0.125 -0.5 0
0.25 -0.5 0
0.25 -0.625 0
0.375 -0.625 0
0.25 -0.5 0
0.375 -0.5 0
0.375 -0.625 0
0.5 -0.625 0
0.375 -0.5 0
0.5 -0.5 0
0.5 -0.625 0
0.625 -0.625 0
0.5 -0.5 0
0.625 -0.5 0
0.625 -0.625 0
0.75 -0.625 0
0.625 -0.5 0
0.75 -0.5 0
0.75 -0.625 0
0.875 -0.625 0
0.75 -0.5 0
0.875 -0.5 0
0.875 -0.625 0
1 -0.625 0
0.875 -0.5 0
1 -0.5 0
-1 -0.5 0
-0.875 -0.5 0
-1 -0.375 0
-0.875 -0.375 0
-0.875 -0.5 0
-0.75 -0.5 0
-0.875 -0.375 0
-0.75 -0.375 0
-0.75 -0.5 0
-0.625 -0.5 0
-0.75 -0.375 0
-0.625 -0.375 0
-0.625 -0.5 0
-0.5 -0.5 0
-0.625 -0.375 0
-0.5 -0.375 0
-0.5 -0.5 0
-0.375 -0.5 0
-0.5 -0.375 0
-0.375 -0.375 0
-0.375 -0.5 0
-0.25 -0.5 0
-0.375 -0.375 0
-0.25 -0.375 0
-0.25 -0.5 0
-0.125 -0.5 0
-0.25 -0.375 0
-0.125 -0.375 0
-0.125 -0.5 0
0 -0.5 0
-0.125 -0.375 0
0 -0.375 0
0 -0.5 0
0.125 -0.5 0
0 -0.375 0
0.125 -0.375 0
0.125 -0.5 0
0.25 -0.5 0
0.125 -0.375 0
0.25 -0.375 0
0.25 -0.5 0
0.375 -0.5 0
0.25 -0.375 0
0.375 -0.375 0
0.375 -0.5 0
0.5 -0.5 0
0.375 -0.375 0
0.5 -0.375 0
0.5 -0.5 0
0.625 -0.5 0
0.5 -0.375 0
0.625 -0.375 0
-1 -0.375 0
-0.875 -0.375 0
-1 -0.25 0
-0.875 -0.25 0
-0.875 -0.375 0
-0.75 -0.375 0
-0.875 -0.25 0
-0.75 -0.25 0
-0.75 -0.375 0
-0.625 -0.375 0
-0.75 -0.25 0
-0.625 -0.25 0
-0.625 -0.375 0
-0.5 -0.375 0
-0.625 -0.25 0
-0.5 -0.25 0
-0.5 -0.375 0
-0.375 -0.375 0
-0.5 -0.25 0
-0.375 -0.25 0
-0.375 -0.375 0
-0.25 -0.375 0
-0.375 -0.25 0
-0.25 -0.25 0
-0.25 -0.375 0
-0.125 -0.375 0
-0.25 -0.25 0
-0.125 -0.25 0
-0.125 -0.375 0
0 -0.375 0
-0.125 -0.25 0
0 -0.25 0
0 -0.375 0
0.125 -0.375 0
0 -0.25 0
0.125 -0.25 0
0.125 -0.375 0
0.25 -0.375 0
0.125 -0.25 0
0.25 -0.25 0
0.25 -0.375 0
0.375 -0.375 0
0.25 -0.25 0
0.375 -0.25 0
0.375 -0.375 0
0.5 -0.375 0
0.375 -0.25 0
0.5 -0.25 0
-1 -0.25 0
-0.875 -0.25 0
-1 -0.125 0
-0.875 -0.125 0
-0.875 -0.25 0
-0.75 -0.25 0
-0.875 -0.125 0
-0.75 -0.125 0
-0.75 -0.25 0
-0.625 -0.25 0
-0.75 -0.125 0
-0.625 -0.125 0
-0.625 -0.25 0
-0.5 -0.25 0
-0.625 -0.125 0
-0.5 -0.125 0
-0.5 -0.25 0
-0.375 -0.25 0
-0.5 -0.125 0
-0.375 -0.125 0
-0.375 -0.25 0
-0.25 -0.25 0
-0.375 -0.125 0
-0.25 -0.125 0
-0.25 -0.25 0
-0.125 -0.25 0
-0.25 -0.125 0
-0.125 -0.125 0
-0.125 -0.25 0
0 -0.25 0
-0.125 -0.125 0
0 -0.125 0
0 -0.25 0
0.125 -0.25 0
0 -0.125 0
0.125 -0.125 0
0.125 -0.25 0
0.25 -0.25 0
0.125 -0.125 0
0.25 -0.125 0
0.25 -0.25 0
0.375 -0.25 0
0.25 -0.125 0
0.375 -0.125 0
0.375 -0.25 0
0.5 -0.25 0
0.375 -0.125 0
0.5 -0.125 0
0.875 -0.25 0
1 -0.25 0
0.875 -0.125 0
1 -0.125 0
-1 -0.125 0
-0.875 -0.125 0
-1 0 0
-0.875 0 0
-0.875 -0.125 0
-0.75 -0.125 0
-0.875 0 0
-0.75 0 0
-0.75 -0.125 0
-0.625 -0.125 0
-0.75 0 0
-0.625 0 0
-0.625 -0.125 0
-0.5 -0.125 0
-0.625 0 0
-0.5 0 0
-0.5 -0.125 0
-0.375 -0.125 0
-0.5 0 0
-0.375 0 0
-0.375 -0.125 0
-0.25 -0.125 0
-0.375 0 0
-0.25 0 0
-0.25 -0.125 0
-0.125 -0.125 0
-0.25 0 0
-0.125 0 0
-0.125 -0.125 0
0 -0.125 0
-0.125 0 0
0 0 0
0 -0.125 0
0.125 -0.125 0
0 0 0
0.125 0 0
0.125 -0.125 0
0.25 -0.125 0
0.125 0 0
0.25 0 0
0.25 -0.125 0
0.375 -0.125 0
0.25 0 0
0.375 0 0
0.625 -0.125 0
0.75 -0.125 0
0.625 0 0
0.75 0 0
0.75 -0.125 0
0.875 -0.125 0
0.75 0 0
0.875 0 0
0.875 -0.125 0
1 -0.125 0
0.875 0 0
1 0 0
-1 0 0
-0.875 0 0
-1 0.125 0
-0.875 0.125 0
-0.875 0 0
-0.75 0 0
-0.875 0.125 0
-0.75 0.125 0
-0.75 0 0
-0.625 0 0
-0.75 0.125 0
-0.625 0.125 0
-0.5 0 0
-0.375 0 0
-0.5 0.125 0
-0.375 0.125 0
-0.375 0 0
-0.25 0 0
-0.375 0.125 0
-0.25 0.125 0
-0.25 0 0
-0.125 0 0
-0.25 0.125 0
-0.125 0.125 0
-0.125 0 0
0 0 0
-0.125 0.125 0
0 0.125 0
0 0 0
0.125 0 0
0 0.125 0
0.125 0.125 0
0.125 0 0
0.25 0 0
0.125 0.125 0
0.25 0.125 0
0.5 0 0
0.625 0 0
0.5 0.125 0
0.625 0.125 0
0.625 0 0
0.75 0 0
0.625 0.125 0
0.75 0.125 0
0.75 0 0
0.875 0 0
0.75 0.125 0
0.875 0.125 0
0.875 0 0
1 0 0
0.875 0.125 0
1 0.125 0
-1 0.125 0
-0.875 0.125 0
-1 0.25 0
-0.875 0.25 0
-0.875 0.125 0
-0.75 0.125 0
-0.875 0.25 0
-0.75 0.25 0
-0.5 0.125 0
-0.375 0.125 0
-0.5 0.25 0
-0.375 0.25 0
-0.375 0.125 0
-0.25 0.125 0
-0.375 0.25 0
-0.25 0.25 0
-0.25 0.125 0
-0.125 0.125 0
-0.25 0.25 0
-0.125 0.25 0
-0.125 0.125 0
0 0.125 0
-0.125 0.25 0
0 0.25 0
0 0.125 0
0.125 0.125 0
0 0.25 0
0.125 0.25 0
0.375 0.125 0
0.5 0.125 0
0.375 0.25 0
0.5 0.25 0
0.5 0.125 0
0.625 0.125 0
0.5 0.25 0
0.625 0.25 0
0.625 0.125 0
0.75 0.125 0
0.625 0.25 0
0.75 0.25 0
0.75 0.125 0
0.875 0.125 0
0.75 0.25 0
0.875 0.25 0
-0.625 0.25 0
-0.5 0.25 0
-0.625 0.375 0
-0.5 0.375 0
-0.5 0.25 0
-0.375 0.25 0
-0.5 0.375 0
-0.375 0.375 0
-0.375 0.25 0
-0.25 0.25 0
-0.375 0.375 0
-0.25 0.375 0
-0.25 0.25 0
-0.125 0.25 0
-0.25 0.375 0
-0.125 0.375 0
-0.125 0.25 0
0 0.25 0
-0.125 0.375 0
0 0.375 0
0.25 0.25 0
0.375 0.25 0
0.25 0.375 0
0.375 0.375 0
0.375 0.25 0
0.5 0.25 0
0.375 0.375 0
0.5 0.375 0
0.5 0.25 0
0.625 0.25 0
0.5 0.375 0
0.625 0.375 0
0.625 0.25 0
0.75 0.25 0
0.625 0.375 0
0.75 0.375 0
0.75 0.25 0
0.875 0.25 0
0.75 0.375 0
0.875 0.375 0
-0.625 0.375 0
-0.5 0.375 0
-0.625 0.5 0
-0.5 0.5 0
-0.5 0.375 0
-0.375 0.375 0
-0.5 0.5 0
-0.375 0.5 0
-0.375 0.375 0
-0.25 0.375 0
-0.375 0.5 0
-0.25 0.5 0
-0.25 0.375 0
-0.125 0.375 0
-0.25 0.5 0
-0.125 0.5 0
0.125 0.375 0
0.25 0.375 0
0.125 0.5 0
0.25 0.5 0
0.25 0.375 0
0.375 0.375 0
0.25 0.5 0
0.375 0.5 0
0.375 0.375 0
0.5 0.375 0
0.375 0.5 0
0.5 0.5 0
0.5 0.375 0
0.625 0.375 0
0.5 0.5 0
0.625 0.5 0
0.625 0.375 0
0.75 0.375 0
0.625 0.5 0
0.75 0.5 0
-0.625 0.5 0
-0.5 0.5 0
-0.625 0.625 0
-0.5 0.625 0
-0.5 0.5 0
-0.375 0.5 0
-0.5 0.625 0
-0.375 0.625 0
-0.375 0.5 0
-0.25 0.5 0
-0.375 0.625 0
-0.25 0.625 0
0.125 0.5 0
0.25 0.5 0
0.125 0.625 0
0.25 0.625 0
0.25 0.5 0
0.375 0.5 0
0.25 0.625 0
0.375 0.625 0
0.375 0.5 0
0.5 0.5 0
0.375 0.625 0
0.5 0.625 0
0.5 0.5 0
0.625 0.5 0
0.5 0.625 0
0.625 0.625 0
-0.75 0.625 0
-0.625 0.625 0
-0.75 0.75 0
-0.625 0.75 0
-0.625 0.625 0
-0.5 0.625 0
-0.625 0.75 0
-0.5 0.75 0
0 0.625 0
0.125 0.625 0
0 0.75 0
0.125 0.75 0
0.125 0.625 0
0.25 0.625 0
0.125 0.75 0
0.25 0.75 0
0.25 0.625 0
0.375 0.625 0
0.25 0.75 0
0.375 0.75 0
0.375 0.625 0
0.5 0.625 0
0.375 0.75 0
0.5 0.75 0
-0.875 0.75 0
-0.75 0.75 0
-0.875 0.875 0
-0.75 0.875 0
-0.75 0.75 0
-0.625 0.75 0
-0.75 0.875 0
-0.625 0.875 0
-0.125 0.75 0
0 0.75 0
-0.125 0.875 0
0 0.875 0
0 0.75 0
0.125 0.75 0
0 0.875 0
0.125 0.875 0
0.125 0.75 0
0.25 0.75 0
0.125 0.875 0
0.25 0.875 0
0.25 0.75 0
0.375 0.75 0
0.25 0.875 0
0.375 0.875 0
0.375 0.75 0
0.5 0.75 0
0.375 0.875 0
0.5 0.875 0
-1 0.875 0
-0.875 0.875 0
-1 1 0
-0.875 1 0
-0.875 0.875 0
-0.75 0.875 0
-0.875 1 0
-0.75 1 0
-0.75 0.875 0
-0.625 0.875 0
-0.75 1 0
-0.625 1 0
-0.25 0.875 0
-0.125 0.875 0
-0.25 1 0
-0.125 1 0
-0.125 0.875 0
0 0.875 0
-0.125 1 0
0 1 0
0 0.875 0
0.125 0.875 0
0 1 0
0.125 1 0
0.125 0.875 0
0.25 0.875 0
0.125 1 0
0.25 1 0
0.25 0.875 0
0.375 0.875 0
0.25 1 0
0.375 1 0
0.875 0.875 0
1 0.875 0
0.875 1 0
1 1 0
0.125 -1 0
0.1875 -1 0
0.125 -0.9375 0
0.1875 -0.9375 0
0.1875 -1 0
0.25 -1 0
0.1875 -0.9375 0
0.25 -0.9375 0
0.125 -0.9375 0
0.1875 -0.9375 0
0.125 -0.875 0
0.1875 -0.875 0
0.1875 -0.9375 0
0.25 -0.9375 0
0.1875 -0.875 0
0.25 -0.875 0
0.25 -1 0
0.3125 -1 0
0.25 -0.9375 0
0.3125 -0.9375 0
0.3125 -1 0
0.375 -1 0
0.3125 -0.9375 0
0.375 -0.9375 0
0.25 -0.9375 0
0.3125 -0.9375 0
0.25 -0.875 0
0.3125 -0.875 0
0.3125 -0.9375 0
0.375 -0.9375 0
0.3125 -0.875 0
0.375 -0.875 0
0.375 -1 0
0.4375 -1 0
[...]
POINT_DATA 1948
SCALARS solution double 1
LOOKUP_TABLE default
1 0.92388 0.92388 0.691714 0.92388 0.707107 0.691714 0.339365 0.707107 0.382683 0.339365 -0.0207674 0.382683 -1.83697e-16 -0.0207674 -0.408358 -1.83697e-16 -0.382683 -0.408358 -0.800019 -0.382683 -0.707107 -0.800019 -1.03682 -0.707107 -0.92388 -1.03682 -1.11991 -0.92388 -1 -1.11991 -1.11948 -1 -0.92388 -1.11948 -0.995913 0.382683 0.707107 -0.110394 0.0985887 0.707107 0.92388 0.0985887 0.102394 0.92388 0 0.102394 0 0.92388 0.691714 0.707107 -0.0135618 0.691714 0.339365 -0.0135618 -0.321889 0.339365 -0.0207674 -0.321889 -0.721246 -0.0207674 -0.408358 -0.721246 -1.15918 -0.408358 -0.800019 -1.15918 -1.39305 -0.800019 -1.03682 -1.39305 -1.41286 -1.03682 -1.11991 -1.41286 -1.34719 -1.11991 -1.11948 -1.34719 -1.1308 -1.11948 -0.995913 -1.1308 -0.750769 -0.995913 -0.786959 -0.750769 -0.32179 -0.229742 -0.110394 0.174436 0.450861 -0.110394 0.0985887 0.450861 0.375684 0.0985887 0.102394 0.375684 0.189032 0.102394 0 0.189032 0 -0.321889 -0.721246 -0.457175 -1.00946 -0.721246 -1.15918 -1.00946 -1.36204 -1.15918 -1.39305 -1.36204 -1.43487 -1.39305 -1.41286 -1.43487 -1.41904 -1.41286 -1.34719 -1.41904 -1.24425 -1.34719 -1.1308 -1.24425 -0.898344 -1.1308 -0.750769 -0.898344 -0.487939 -0.750769 -0.32179 -0.487939 -0.0118901 -0.32179 0.0030371 -0.0118901 0.406206 0.0030371 0.174436 0.406206 0.645226 0.174436 0.450861 0.645226 0.648278 0.450861 0.375684 0.648278 0.533983 0.375684 0.189032 0.533983 0.356446 0.189032 0 0.356446 0 0.0387462 -0.457175 -0.412859 -0.772424 -0.457175 -1.00946 -0.772424 -1.03588 -1.00946 -1.36204 -1.03588 -1.10861 -1.36204 -1.43487 -1.10861 -1.15087 -1.43487 -1.41904 -1.15087 -1.0158 -1.41904 -1.24425 -1.0158 -0.687245 -1.24425 -0.898344 -0.687245 -0.331016 -0.898344 -0.487939 -0.331016 0.106963 -0.487939 -0.0118901 0.106963 0.567439 -0.0118901 0.406206 0.567439 0.824838 0.406206 0.645226 0.824838 0.925732 0.645226 0.648278 0.925732 0.908723 0.648278 0.533983 0.908723 0.636206 0.533983 0.356446 0.636206 0.363046 0.356446 0 0.363046 0 -1.83697e-16 -0.412859 -0.382683 -0.617843 -0.412859 -0.772424 -0.617843 -0.788144 -0.772424 -1.03588 -0.788144 -0.864081 -1.03588 -1.10861 -0.864081 -0.812558 -1.10861 -1.15087 -0.812558 -0.578408 -1.15087 -1.0158 -0.578408 -0.24022 -1.0158 -0.687245 -0.24022 0.0297818 -0.687245 -0.331016 0.0297818 0.374323 -0.331016 0.106963 0.374323 0.831369 0.106963 0.567439 0.831369 1.11164 0.567439 0.824838 1.11164 1.17758 0.824838 0.925732 1.17758 1.17197 0.925732 0.908723 1.17197 0.900301 -0.382683 -0.617843 -0.707107 -0.808941 -0.617843 -0.788144 -0.808941 -0.786805 -0.788144 -0.864081 -0.786805 -0.632281 -0.864081 -0.812558 -0.632281 -0.375252 -0.812558 -0.578408 -0.375252 -0.0305168 -0.578408 -0.24022 -0.0305168 0.306105 -0.24022 0.0297818 0.306105 0.65431 0.0297818 0.374323 0.65431 1.04858 0.374323 0.831369 1.04858 1.29311 0.831369 1.11164 1.29311 1.3158 1.11164 1.17758 1.3158 1.25947 1.17758 1.17197 1.25947 1.09495 -0.707107 -0.808941 -0.92388 -0.947235 -0.808941 -0.786805 -0.947235 -0.825128 -0.786805 -0.632281 -0.825128 -0.475064 -0.632281 -0.375252 -0.475064 -0.0322719 -0.375252 -0.0305168 -0.0322719 0.474943 -0.0305168 0.306105 0.474943 0.867152 0.306105 0.65431 0.867152 1.22285 0.65431 1.04858 1.22285 1.57652 1.04858 1.29311 1.57652 1.72906 1.29311 1.3158 1.72906 1.62108 1.3158 1.25947 1.62108 1.36042 1.25947 1.09495 1.36042 0.863454 0.280003 0 0.278851 0 -0.92388 -0.947235 -1 -0.894705 -0.947235 -0.825128 -0.894705 -0.582855 -0.825128 -0.475064 -0.582855 -0.171739 -0.475064 -0.0322719 -0.171739 0.328383 -0.0322719 0.474943 0.328383 0.808373 0.474943 0.867152 0.808373 1.18226 0.867152 1.22285 1.18226 1.61788 1.22285 1.57652 1.61788 1.90549 1.57652 1.72906 1.90549 1.8431 1.72906 1.62108 1.8431 1.6108 1.62108 1.36042 1.6108 1.24818 0.598271 0.660401 0.826733 0.501437 0.660401 0.278851 0.501437 -0.0168552 0.278851 0 -0.0168552 0 -1 -0.894705 -0.92388 -0.727451 -0.894705 -0.582855 -0.727451 -0.338991 -0.582855 -0.171739 -0.338991 0.133526 0.328383 0.808373 0.716634 0.97932 0.808373 1.18226 0.97932 1.30446 1.18226 1.61788 1.30446 1.69699 1.61788 1.90549 1.69699 1.79027 1.90549 1.8431 1.79027 1.64208 1.8431 1.6108 1.64208 1.32261 0.728956 0.826733 0.920985 0.711316 0.826733 0.501437 0.711316 -0.00176451 0.501437 -0.0168552 -0.00176451 -0.31963 -0.0168552 0 -0.31963 0 -0.92388 -0.727451 -0.707107 -0.346185 -0.727451 -0.338991 -0.346185 -0.000723615 0.716634 0.97932 0.73402 0.920776 0.97932 1.30446 0.920776 1.25436 1.30446 1.69699 1.25436 1.38473 1.69699 1.79027 1.38473 1.21813 1.79027 1.64208 1.21813 1.00877 0.736898 0.920985 0.713272 0.736614 0.920985 0.711316 0.736614 0.0700828 0.711316 -0.00176451 0.0700828 -0.464712 -0.00176451 -0.31963 -0.464712 -0.221228 0.338926 0.73402 0.557144 0.653041 0.73402 0.920776 0.653041 0.85935 0.920776 1.25436 0.85935 0.955028 1.25436 1.38473 0.955028 0.886651 1.38473 1.21813 0.886651 0.59795 0.448863 0.713272 0.123243 0.355701 0.713272 0.736614 0.355701 -0.0125273 0.736614 0.0700828 -0.0125273 -0.642103 0.0700828 -0.464712 -0.642103 -0.474576 -0.464712 -0.221228 -0.474576 -0.170782 0.557144 0.653041 0.712391 0.57219 0.653041 0.85935 0.57219 0.722684 0.85935 0.955028 0.722684 0.588738 0.955028 0.886651 0.588738 0.307875 0.0338027 0.123243 -0.336188 -0.0913742 0.123243 0.355701 -0.0913742 -0.235917 0.355701 -0.0125273 -0.235917 -0.848062 -0.0125273 -0.642103 -0.848062 -1.06869 -0.642103 -0.474576 -1.06869 -0.567438 0.712391 0.57219 0.39949 0.437167 0.57219 0.722684 0.437167 0.349035 0.722684 0.588738 0.349035 0.0667205 -0.336188 -0.0913742 -0.502261 -0.257056 -0.0913742 -0.235917 -0.257056 -0.715396 -0.235917 -0.848062 -0.715396 -1.08686 -0.848062 -1.06869 -1.08686 -1.0314 0.718638 0.39949 0.412894 -0.101254 0.39949 0.437167 -0.101254 0.439048 -0.578588 -0.502261 -0.500163 -0.23396 -0.502261 -0.257056 -0.23396 -0.510702 -0.257056 -0.715396 -0.510702 -0.822222 -0.715396 -1.08686 -0.822222 -1.06656 0.571982 0.412894 0.46001 -0.05157 0.412894 -0.101254 -0.05157 -0.0434781 -0.167475 -0.500163 -0.268772 -0.182109 -0.500163 -0.23396 -0.182109 -0.270373 -0.23396 -0.510702 -0.270373 -0.5672 -0.510702 -0.822222 -0.5672 -0.505094 -0.822222 -1.06656 -0.505094 -0.916848 0.92388 0.46001 0 0 0.46001 -0.05157 0 0 -0.05157 -0.0434781 0 0 -0.203376 -0.268772 0 0 -0.268772 -0.182109 0 0 -0.182109 -0.270373 0 0 -0.270373 -0.5672 0 0 -0.5672 -0.505094 0 0 0.269944 0 0 0 -0.92388 -0.83147 -0.860221 -0.586686 -0.83147 -0.707107 -0.586686 -0.558201 -0.860221 -0.586686 -0.995913 -0.400806 -0.586686 -0.558201 -0.400806 -0.786959 -0.707107 -0.55557 -0.558201 -0.515357 -0.55557 -0.382683 -0.515357 -0.281632 -0.558201 -0.515357 -0.786959 -0.680039 -0.515357 -0.281632 -0.680039 -0.425305 -0.382683 -0.19509 -0.281632 -0.0277561 -0.19509 6.12323e-17 -0.0277561 0.101363 -0.281632 -0.0277561 -0.425305 -0.316523 -0.0277561 0.101363 -0.316523 -0.229742 6.12323e-17 0.19509 0.101363 0.269925 0.19509 0.382683 0.269925 -0.00620746 0.101363 0.269925 -0.229742 1.01171 0.269925 -0.00620746 1.01171 -0.110394 -0.786959 -0.680039 -0.672326 -0.25225 -0.680039 -0.425305 -0.25225 -0.114536 -0.672326 -0.25225 -0.32179 0.503034 -0.25225 -0.114536 0.503034 0.0030371 -0.425305 -0.316523 -0.114536 0.101712 -0.316523 -0.229742 0.101712 -0.0790729 -0.114536 0.101712 0.0030371 0.892505 0.101712 -0.0790729 0.892505 0.174436 0.707107 0.856905 0.55557 0.368185 0.856905 -0.0135618 0.368185 0.296803 0.55557 0.368185 0.382683 0.237844 0.368185 0.296803 0.237844 0.0387462 -0.0135618 0.383103 0.296803 0.0893098 0.383103 -0.321889 0.0893098 -0.443167 0.296803 0.0893098 0.0387462 0.0626549 0.0893098 -0.443167 0.0626549 -0.457175 0.382683 0.237844 0.19509 -0.018052 0.237844 0.0387462 -0.018052 -0.304982 0.19509 -0.018052 -1.83697e-16 0.130621 -0.018052 -0.304982 0.130621 -0.412859 0.908723 1.02857 0.839045 0.779604 1.02857 0.636206 0.779604 0.691581 0.839045 0.779604 0.900301 0.693455 0.779604 0.691581 0.693455 0.528267 0.636206 0.660855 0.691581 0.614416 0.660855 0.363046 0.614416 0.450772 0.691581 0.614416 0.528267 0.475195 0.614416 0.450772 0.475195 0.40279 0.363046 0.3232 0.450772 0.268399 0.3232 0 0.268399 0 0.450772 0.268399 0.40279 0.190832 0.268399 0 0.190832 0 1.17197 0.906336 0.9245 0.936675 0.906336 0.900301 0.936675 0.764912 0.9245 0.936675 1.09495 0.823366 0.936675 0.764912 0.823366 0.506499 0.900301 0.693455 0.764912 0.561794 0.693455 0.528267 0.561794 0.46685 0.764912 0.561794 0.506499 0.538605 0.561794 0.46685 0.538605 0.541484 0.528267 0.475195 0.46685 0.360759 0.475195 0.40279 0.360759 0.106514 0.46685 0.360759 0.541484 0.445649 0.360759 0.106514 0.445649 0.280003 0.40279 0.190832 0.106514 -0.245281 0.190832 0 -0.245281 0 0.106514 -0.245281 0.280003 -0.92439 -0.245281 0 -0.92439 0 1.09495 0.823366 0.87508 0.556488 0.823366 0.506499 0.556488 0.450517 0.87508 0.556488 0.863454 0.580494 0.556488 0.450517 0.580494 0.598271 0.506499 0.538605 0.450517 0.134292 0.538605 0.541484 0.134292 0.217658 0.450517 0.134292 0.598271 -0.301354 0.134292 0.217658 -0.301354 0.660401 0.541484 0.445649 0.217658 -0.086458 0.445649 0.280003 -0.086458 0.126067 0.217658 -0.086458 0.660401 -0.814143 -0.086458 0.126067 -0.814143 0.278851 1.36042 0.614014 1.13731 0.743932 0.614014 0.863454 0.743932 0.403315 1.13731 0.743932 1.24818 0.740153 0.743932 0.403315 0.740153 0.728956 0.863454 0.580494 0.403315 0.216689 0.580494 0.598271 0.216689 0.571305 0.403315 0.216689 0.728956 -0.0207189 0.216689 0.571305 -0.0207189 0.826733 -0.171739 -0.56277 -0.0312842 0.284573 -0.56277 0.328383 0.284573 0.44871 -0.0312842 0.284573 0.133526 0.481151 0.284573 0.44871 0.481151 0.716634 1.6108 0.676388 1.23078 0.841595 0.676388 1.24818 0.841595 0.483409 1.23078 0.841595 1.32261 0.791854 0.841595 0.483409 0.791854 0.736898 1.24818 0.740153 0.483409 0.375243 0.740153 0.728956 0.375243 0.799455 0.483409 0.375243 0.736898 0.182714 0.375243 0.799455 0.182714 0.920985 -0.338991 -0.633888 -0.168742 -0.0176333 -0.633888 0.133526 -0.0176333 0.116128 -0.168742 -0.0176333 -0.000723615 0.195648 -0.0176333 0.116128 0.195648 0.338926 0.133526 0.481151 0.116128 0.293554 0.481151 0.716634 0.293554 0.750032 0.116128 0.293554 0.338926 0.102922 0.293554 0.750032 0.102922 0.73402 1.64208 0.632205 0.971857 0.660664 0.632205 1.32261 0.660664 0.360305 0.971857 0.660664 1.00877 0.60172 0.660664 0.360305 0.60172 0.448863 1.32261 0.791854 0.360305 0.252954 0.791854 0.736898 0.252954 0.573619 0.360305 0.252954 0.448863 0.174958 0.252954 0.573619 0.174958 0.713272 -0.31963 -1.50722 -0.117105 0.0487022 -1.50722 0 0.0487022 0 -0.117105 0.0487022 -0.221228 0.0667749 0.0487022 0 0.0667749 0 -0.707107 -1.092 -0.55557 -0.271263 -1.092 -0.346185 -0.271263 -0.17847 -0.55557 -0.271263 -0.382683 -0.236054 -0.271263 -0.17847 -0.236054 -0.0154716 -0.346185 -0.655225 -0.17847 -0.0768919 -0.655225 -0.000723615 -0.0768919 0.197632 -0.17847 -0.0768919 -0.0154716 0.288628 -0.0768919 0.197632 0.288628 0.303545 -0.000723615 0.195648 0.197632 0.414491 0.195648 0.338926 0.414491 0.600342 0.197632 0.414491 0.303545 0.390847 0.414491 0.600342 0.390847 0.557144 1.21813 0.473771 0.620631 0.382515 0.473771 1.00877 0.382515 0.119671 0.620631 0.382515 0.59795 0.255946 0.382515 0.119671 0.255946 0.0338027 1.00877 0.60172 0.119671 -0.0292881 0.60172 0.448863 -0.0292881 0.142905 0.119671 -0.0292881 0.0338027 -0.0479557 -0.0292881 0.142905 -0.0479557 0.123243 -0.221228 0.0667749 -0.375375 -0.233653 0.0667749 0 -0.233653 0 -0.375375 -0.233653 -0.170782 -0.119661 -0.233653 0 -0.119661 0 -0.382683 -0.236054 -0.19509 0.0449703 -0.236054 -0.0154716 0.0449703 0.254685 -0.19509 0.0449703 6.12323e-17 0.138473 0.0449703 0.254685 0.138473 0.356461 -0.0154716 0.288628 0.254685 0.427691 0.288628 0.303545 0.427691 0.621974 0.254685 0.427691 0.356461 0.499465 0.427691 0.621974 0.499465 0.544457 0.303545 0.390847 0.621974 0.807895 0.390847 0.557144 0.807895 0.823483 0.621974 0.807895 0.544457 0.625675 0.807895 0.823483 0.625675 0.712391 0.886651 0.420787 0.34252 0.202501 0.420787 0.59795 0.202501 0.0487556 0.34252 0.202501 0.307875 0.0379922 0.202501 0.0487556 0.0379922 -0.114185 0.59795 0.255946 0.0487556 -0.131348 0.255946 0.0338027 -0.131348 -0.233607 0.0487556 -0.131348 -0.114185 -0.189837 -0.131348 -0.233607 -0.189837 -0.336188 -0.474576 -0.697539 -0.667448 -0.451426 -0.697539 -0.170782 -0.451426 -0.330431 -0.667448 -0.451426 -0.567438 -0.396387 -0.451426 -0.330431 -0.396387 -0.484968 -0.170782 -0.119661 -0.330431 -0.234728 -0.119661 0 -0.234728 0 -0.330431 -0.234728 -0.484968 -0.256419 -0.234728 0 -0.256419 0 6.12323e-17 0.138473 0.19509 0.5721 0.138473 0.356461 0.5721 0.751597 0.19509 0.5721 0.382683 0.473672 0.5721 0.751597 0.473672 0.630153 0.356461 0.499465 0.751597 0.843761 0.499465 0.544457 0.843761 0.948142 0.751597 0.843761 0.630153 0.749503 0.843761 0.948142 0.749503 0.718638 0.544457 0.625675 0.948142 1.07441 0.625675 0.712391 1.07441 1.0157 0.948142 1.07441 0.718638 0.482215 1.07441 1.0157 0.482215 0.39949 0.588738 0.491922 0.283698 -0.0831122 0.491922 0.307875 -0.0831122 -0.294239 0.283698 -0.0831122 0.0667205 -0.068218 -0.0831122 -0.294239 -0.068218 -0.270124 0.307875 0.0379922 -0.294239 -0.444852 0.0379922 -0.114185 -0.444852 -0.585164 -0.294239 -0.444852 -0.270124 -0.475693 -0.444852 -0.585164 -0.475693 -0.578588 -0.114185 -0.189837 -0.585164 -0.843676 -0.189837 -0.336188 -0.843676 -1.03926 -0.585164 -0.843676 -0.578588 -0.225256 -0.843676 -1.03926 -0.225256 -0.502261 -1.06869 -0.722076 -0.99834 -0.740673 -0.722076 -0.567438 -0.740673 -0.498122 -0.99834 -0.740673 -1.0314 -0.513909 -0.740673 -0.498122 -0.513909 -0.51946 -0.567438 -0.396387 -0.498122 -0.483731 -0.396387 -0.484968 -0.483731 -0.334249 -0.498122 -0.483731 -0.51946 -0.601031 -0.483731 -0.334249 -0.601031 -0.331581 -0.484968 -0.256419 -0.334249 -0.0748018 -0.256419 0 -0.0748018 0 -0.334249 -0.0748018 -0.331581 -0.0997343 -0.0748018 0 -0.0997343 0 0.382683 0.473672 0.55557 0.960506 0.473672 0.630153 0.960506 1.02399 0.55557 0.960506 0.707107 0.541335 0.960506 1.02399 0.541335 0.571982 0.630153 0.749503 1.02399 0.987563 0.749503 0.718638 0.987563 1.05847 1.02399 0.987563 0.571982 0.474888 0.987563 1.05847 0.474888 0.412894 0.437167 0.910555 0.776282 0.128905 0.910555 0.349035 0.128905 -0.0909877 0.776282 0.128905 0.439048 0.0937935 0.128905 -0.0909877 0.0937935 0.100087 0.349035 0.470004 -0.0909877 0.159085 0.470004 0.0667205 0.159085 -0.00339709 -0.0909877 0.159085 0.100087 -0.100756 0.159085 -0.00339709 -0.100756 -0.205952 0.0667205 -0.068218 -0.00339709 -0.499354 -0.068218 -0.270124 -0.499354 -0.785506 -0.00339709 -0.499354 -0.205952 -0.150883 -0.499354 -0.785506 -0.150883 -0.167475 -0.270124 -0.475693 -0.785506 -0.868193 -0.475693 -0.578588 -0.868193 -1.1708 -0.785506 -0.868193 -0.167475 -0.0407522 -0.868193 -1.1708 -0.0407522 -0.500163 -1.08686 -0.995463 -1.34055 -0.995469 -0.995463 -1.0314 -0.995469 -0.491186 -1.34055 -0.995469 -1.06656 -0.776807 -0.995469 -0.491186 -0.776807 -0.422392 -1.0314 -0.513909 -0.491186 -0.46215 -0.513909 -0.51946 -0.46215 -0.640822 -0.491186 -0.46215 -0.422392 -0.370506 -0.46215 -0.640822 -0.370506 -0.345247 -0.51946 -0.601031 -0.640822 -0.396226 -0.601031 -0.331581 -0.396226 -0.133429 -0.640822 -0.396226 -0.345247 -0.209893 -0.396226 -0.133429 -0.209893 -0.0839443 -0.331581 -0.0997343 -0.133429 -0.0533371 -0.0997343 0 -0.0533371 0 -0.133429 -0.0533371 -0.0839443 0.0589796 -0.0533371 0 0.0589796 0 0.707107 0.541335 0.83147 0.993166 0.541335 0.571982 0.993166 1.07481 0.83147 0.993166 0.92388 0.443215 0.993166 1.07481 0.443215 0.46001 -0.101254 0.837874 1.1618 0.318911 0.837874 0.439048 0.318911 -0.233241 1.1618 0.318911 -0.0434781 0.468455 0.318911 -0.233241 0.468455 0.455205 0.439048 0.0937935 -0.233241 -0.117191 0.0937935 0.100087 -0.117191 -0.074236 -0.233241 -0.117191 0.455205 -0.143078 -0.117191 -0.074236 -0.143078 -0.151184 0.100087 -0.100756 -0.074236 -0.258684 -0.100756 -0.205952 -0.258684 -0.707285 -0.074236 -0.258684 -0.151184 0.0745531 -0.258684 -0.707285 0.0745531 -0.203376 -0.205952 -0.150883 -0.707285 -1.02239 -0.150883 -0.167475 -1.02239 -1.2207 -0.707285 -1.02239 -0.203376 0.228316 -1.02239 -1.2207 0.228316 -0.268772 -1.06656 -0.776807 -1.15664 -0.430503 -0.776807 -0.422392 -0.430503 -0.11284 -1.15664 -0.430503 -0.916848 -0.0426485 -0.430503 -0.11284 -0.0426485 -0.326978 -0.422392 -0.370506 -0.11284 -0.43565 -0.370506 -0.345247 -0.43565 -0.360363 -0.11284 -0.43565 -0.326978 -0.468664 -0.43565 -0.360363 -0.468664 0.00150629 -0.345247 -0.209893 -0.360363 0.0870145 -0.209893 -0.0839443 0.0870145 0.254012 -0.360363 0.0870145 0.00150629 0.228685 0.0870145 0.254012 0.228685 0.269944 -0.0839443 0.0589796 0.254012 0.19149 0.0589796 0 0.19149 0 0.254012 0.19149 0.269944 0.148513 0.19149 0 0.148513 0 -0.0434781 0.468455 0.594803 -0.385765 0.468455 0.455205 -0.385765 -0.836722 0.594803 -0.385765 0 0 -0.385765 -0.836722 0 0 0.455205 -0.143078 -0.836722 -0.163664 -0.143078 -0.151184 -0.163664 0.122719 -0.836722 -0.163664 0 0 -0.163664 0.122719 0 0 -0.151184 0.0745531 0.122719 -0.700516 0.0745531 -0.203376 -0.700516 -1.27657 0.122719 -0.700516 0 0 -0.700516 -1.27657 0 0 -0.505094 -0.767934 -1.43747 -0.524185 -0.767934 -0.916848 -0.524185 0.609217 -1.43747 -0.524185 0 0 -0.524185 0.609217 0 0 -0.916848 -0.0426485 0.609217 0.199588 -0.0426485 -0.326978 0.199588 -0.583308 0.609217 0.199588 0 0 0.199588 -0.583308 0 0 -0.326978 -0.468664 -0.583308 -0.422035 -0.468664 0.00150629 -0.422035 -0.17977 -0.583308 -0.422035 0 0 -0.422035 -0.17977 0 0 0.00150629 0.228685 -0.17977 -0.248474 0.228685 0.269944 -0.248474 -0.303343 -0.17977 -0.248474 0 0 -0.248474 -0.303343 0 0 
