# vtk DataFile Version 3.0
#This file was generated by the deal.II library on 2020/5/26 at 20:15:22
ASCII
DATASET UNSTRUCTURED_GRID

POINTS 3772 double
-1 -1 0
-0.875 -1 0
-1 -0.875 0
-0.875 -0.875 0
-0.875 -1 0
-0.75 -1 0
-0.875 -0.875 0
-0.75 -0.875 0
-0.75 -1 0
-0.625 -1 0
-0.75 -0.875 0
-0.625 -0.875 0
-0.625 -1 0
-0.5 -1 0
-0.625 -0.875 0
-0.5 -0.875 0
-0.5 -1 0
-0.375 -1 0
-0.5 -0.875 0
-0.375 -0.875 0
-0.375 -1 0
-0.25 -1 0
-0.375 -0.875 0
-0.25 -0.875 0
-0.25 -1 0
-0.125 -1 0
-0.25 -0.875 0
-0.125 -0.875 0
-0.125 -1 0
0 -1 0
-0.125 -0.875 0
0 -0.875 0
0 -1 0
0.125 -1 0
0 -0.875 0
0.125 -0.875 0
0.125 -1 0
0.25 -1 0
0.125 -0.875 0
0.25 -0.875 0
0.25 -1 0
0.375 -1 0
0.25 -0.875 0
0.375 -0.875 0
0.375 -1 0
0.5 -1 0
0.375 -0.875 0
0.5 -0.875 0
-1 -0.875 0
-0.875 -0.875 0
-1 -0.75 0
-0.875 -0.75 0
-0.875 -0.875 0
-0.75 -0.875 0
-0.875 -0.75 0
-0.75 -0.75 0
-0.75 -0.875 0
-0.625 -0.875 0
-0.75 -0.75 0
-0.625 -0.75 0
-0.625 -0.875 0
-0.5 -0.875 0
-0.625 -0.75 0
-0.5 -0.75 0
-0.5 -0.875 0
-0.375 -0.875 0
-0.5 -0.75 0
-0.375 -0.75 0
-0.375 -0.875 0
-0.25 -0.875 0
-0.375 -0.75 0
-0.25 -0.75 0
-1 -0.75 0
-0.875 -0.75 0
-1 -0.625 0
-0.875 -0.625 0
-0.875 -0.75 0
-0.75 -0.75 0
-0.875 -0.625 0
-0.75 -0.625 0
-0.75 -0.75 0
-0.625 -0.75 0
-0.75 -0.625 0
-0.625 -0.625 0
-0.625 -0.75 0
-0.5 -0.75 0
-0.625 -0.625 0
-0.5 -0.625 0
-0.5 -0.75 0
-0.375 -0.75 0
-0.5 -0.625 0
-0.375 -0.625 0
-0.375 -0.75 0
-0.25 -0.75 0
-0.375 -0.625 0
-0.25 -0.625 0
-0.25 -0.75 0
-0.125 -0.75 0
-0.25 -0.625 0
-0.125 -0.625 0
-0.125 -0.75 0
0 -0.75 0
-0.125 -0.625 0
0 -0.625 0
0 -0.75 0
0.125 -0.75 0
0 -0.625 0
0.125 -0.625 0
0.875 -0.75 0
1 -0.75 0
0.875 -0.625 0
1 -0.625 0
-1 -0.625 0
-0.875 -0.625 0
-1 -0.5 0
-0.875 -0.5 0
-0.875 -0.625 0
-0.75 -0.625 0
-0.875 -0.5 0
-0.75 -0.5 0
-0.75 -0.625 0
-0.625 -0.625 0
-0.75 -0.5 0
-0.625 -0.5 0
-0.625 -0.625 0
-0.5 -0.625 0
-0.625 -0.5 0
-0.5 -0.5 0
-0.5 -0.625 0
-0.375 -0.625 0
-0.5 -0.5 0
-0.375 -0.5 0
-0.375 -0.625 0
-0.25 -0.625 0
-0.375 -0.5 0
-0.25 -0.5 0
-0.25 -0.625 0
-0.125 -0.625 0
-0.25 -0.5 0
-0.125 -0.5 0
-0.125 -0.625 0
0 -0.625 0
-0.125 -0.5 0
0 -0.5 0
0 -0.625 0
0.125 -0.625 0
0 -0.5 0
0.125 -0.5 0
0.125 -0.625 0
0.25 -0.625 0
0.125 -0.5 0
0.25 -0.5 0
0.25 -0.625 0
0.375 -0.625 0
0.25 -0.5 0
0.375 -0.5 0
0.375 -0.625 0
0.5 -0.625 0
0.375 -0.5 0
0.5 -0.5 0
0.5 -0.625 0
0.625 -0.625 0
0.5 -0.5 0
0.625 -0.5 0
0.625 -0.625 0
0.75 -0.625 0
0.625 -0.5 0
0.75 -0.5 0
0.75 -0.625 0
0.875 -0.625 0
0.75 -0.5 0
0.875 -0.5 0
0.875 -0.625 0
1 -0.625 0
0.875 -0.5 0
1 -0.5 0
-1 -0.5 0
-0.875 -0.5 0
-1 -0.375 0
-0.875 -0.375 0
-0.875 -0.5 0
-0.75 -0.5 0
-0.875 -0.375 0
-0.75 -0.375 0
-0.75 -0.5 0
-0.625 -0.5 0
-0.75 -0.375 0
-0.625 -0.375 0
-0.625 -0.5 0
-0.5 -0.5 0
-0.625 -0.375 0
-0.5 -0.375 0
-0.5 -0.5 0
-0.375 -0.5 0
-0.5 -0.375 0
-0.375 -0.375 0
-0.375 -0.5 0
-0.25 -0.5 0
-0.375 -0.375 0
-0.25 -0.375 0
-0.25 -0.5 0
-0.125 -0.5 0
-0.25 -0.375 0
-0.125 -0.375 0
-0.125 -0.5 0
0 -0.5 0
-0.125 -0.375 0
0 -0.375 0
0 -0.5 0
0.125 -0.5 0
0 -0.375 0
0.125 -0.375 0
0.125 -0.5 0
0.25 -0.5 0
0.125 -0.375 0
0.25 -0.375 0
0.25 -0.5 0
0.375 -0.5 0
0.25 -0.375 0
0.375 -0.375 0
0.375 -0.5 0
0.5 -0.5 0
0.375 -0.375 0
0.5 -0.375 0
0.5 -0.5 0
0.625 -0.5 0
0.5 -0.375 0
0.625 -0.375 0
0.625 -0.5 0
0.75 -0.5 0
0.625 -0.375 0
0.75 -0.375 0
0.75 -0.5 0
0.875 -0.5 0
0.75 -0.375 0
0.875 -0.375 0
0.875 -0.5 0
1 -0.5 0
0.875 -0.375 0
1 -0.375 0
-1 -0.375 0
-0.875 -0.375 0
-1 -0.25 0
-0.875 -0.25 0
-0.875 -0.375 0
-0.75 -0.375 0
-0.875 -0.25 0
-0.75 -0.25 0
-0.75 -0.375 0
-0.625 -0.375 0
-0.75 -0.25 0
-0.625 -0.25 0
-0.625 -0.375 0
-0.5 -0.375 0
-0.625 -0.25 0
-0.5 -0.25 0
-0.5 -0.375 0
-0.375 -0.375 0
-0.5 -0.25 0
-0.375 -0.25 0
-0.375 -0.375 0
-0.25 -0.375 0
-0.375 -0.25 0
-0.25 -0.25 0
-0.25 -0.375 0
-0.125 -0.375 0
-0.25 -0.25 0
-0.125 -0.25 0
-0.125 -0.375 0
0 -0.375 0
-0.125 -0.25 0
0 -0.25 0
0 -0.375 0
0.125 -0.375 0
0 -0.25 0
0.125 -0.25 0
0.125 -0.375 0
0.25 -0.375 0
0.125 -0.25 0
0.25 -0.25 0
0.25 -0.375 0
0.375 -0.375 0
0.25 -0.25 0
0.375 -0.25 0
0.375 -0.375 0
0.5 -0.375 0
0.375 -0.25 0
0.5 -0.25 0
0.5 -0.375 0
0.625 -0.375 0
0.5 -0.25 0
0.625 -0.25 0
0.875 -0.375 0
1 -0.375 0
0.875 -0.25 0
1 -0.25 0
-1 -0.25 0
-0.875 -0.25 0
-1 -0.125 0
-0.875 -0.125 0
-0.875 -0.25 0
-0.75 -0.25 0
-0.875 -0.125 0
-0.75 -0.125 0
-0.75 -0.25 0
-0.625 -0.25 0
-0.75 -0.125 0
-0.625 -0.125 0
-0.625 -0.25 0
-0.5 -0.25 0
-0.625 -0.125 0
-0.5 -0.125 0
-0.5 -0.25 0
-0.375 -0.25 0
-0.5 -0.125 0
-0.375 -0.125 0
-0.375 -0.25 0
-0.25 -0.25 0
-0.375 -0.125 0
-0.25 -0.125 0
-0.25 -0.25 0
-0.125 -0.25 0
-0.25 -0.125 0
-0.125 -0.125 0
-0.125 -0.25 0
0 -0.25 0
-0.125 -0.125 0
0 -0.125 0
0 -0.25 0
0.125 -0.25 0
0 -0.125 0
0.125 -0.125 0
0.125 -0.25 0
0.25 -0.25 0
0.125 -0.125 0
0.25 -0.125 0
0.25 -0.25 0
0.375 -0.25 0
0.25 -0.125 0
0.375 -0.125 0
-1 -0.125 0
-0.875 -0.125 0
-1 0 0
-0.875 0 0
-0.875 -0.125 0
-0.75 -0.125 0
-0.875 0 0
-0.75 0 0
-0.75 -0.125 0
-0.625 -0.125 0
-0.75 0 0
-0.625 0 0
-0.625 -0.125 0
-0.5 -0.125 0
-0.625 0 0
-0.5 0 0
-0.5 -0.125 0
-0.375 -0.125 0
-0.5 0 0
-0.375 0 0
-0.375 -0.125 0
-0.25 -0.125 0
-0.375 0 0
-0.25 0 0
-0.25 -0.125 0
-0.125 -0.125 0
-0.25 0 0
-0.125 0 0
-0.125 -0.125 0
0 -0.125 0
-0.125 0 0
0 0 0
0 -0.125 0
0.125 -0.125 0
0 0 0
0.125 0 0
-1 0 0
-0.875 0 0
-1 0.125 0
-0.875 0.125 0
-0.875 0 0
-0.75 0 0
-0.875 0.125 0
-0.75 0.125 0
-0.75 0 0
-0.625 0 0
-0.75 0.125 0
-0.625 0.125 0
-0.625 0 0
-0.5 0 0
-0.625 0.125 0
-0.5 0.125 0
-0.25 0 0
-0.125 0 0
-0.25 0.125 0
-0.125 0.125 0
-0.125 0 0
0 0 0
-0.125 0.125 0
0 0.125 0
-1 0.125 0
-0.875 0.125 0
-1 0.25 0
-0.875 0.25 0
-0.875 0.125 0
-0.75 0.125 0
-0.875 0.25 0
-0.75 0.25 0
-0.75 0.125 0
-0.625 0.125 0
-0.75 0.25 0
-0.625 0.25 0
-0.25 0.125 0
-0.125 0.125 0
-0.25 0.25 0
-0.125 0.25 0
-0.125 0.125 0
0 0.125 0
-0.125 0.25 0
0 0.25 0
-1 0.25 0
-0.875 0.25 0
-1 0.375 0
-0.875 0.375 0
-0.875 0.25 0
-0.75 0.25 0
-0.875 0.375 0
-0.75 0.375 0
-0.75 0.25 0
-0.625 0.25 0
-0.75 0.375 0
-0.625 0.375 0
-0.375 0.25 0
-0.25 0.25 0
-0.375 0.375 0
-0.25 0.375 0
-0.25 0.25 0
-0.125 0.25 0
-0.25 0.375 0
-0.125 0.375 0
-0.125 0.25 0
0 0.25 0
-0.125 0.375 0
0 0.375 0
0 0.25 0
0.125 0.25 0
0 0.375 0
0.125 0.375 0
0.875 0.25 0
1 0.25 0
0.875 0.375 0
1 0.375 0
-1 0.375 0
-0.875 0.375 0
-1 0.5 0
-0.875 0.5 0
-0.875 0.375 0
-0.75 0.375 0
-0.875 0.5 0
-0.75 0.5 0
-0.75 0.375 0
-0.625 0.375 0
-0.75 0.5 0
-0.625 0.5 0
-0.5 0.375 0
-0.375 0.375 0
-0.5 0.5 0
-0.375 0.5 0
-0.375 0.375 0
-0.25 0.375 0
-0.375 0.5 0
-0.25 0.5 0
-0.25 0.375 0
-0.125 0.375 0
-0.25 0.5 0
-0.125 0.5 0
-0.125 0.375 0
0 0.375 0
-0.125 0.5 0
0 0.5 0
0 0.375 0
0.125 0.375 0
0 0.5 0
0.125 0.5 0
0.5 0.375 0
0.625 0.375 0
0.5 0.5 0
0.625 0.5 0
0.625 0.375 0
0.75 0.375 0
0.625 0.5 0
0.75 0.5 0
0.75 0.375 0
0.875 0.375 0
0.75 0.5 0
0.875 0.5 0
0.875 0.375 0
1 0.375 0
0.875 0.5 0
1 0.5 0
-1 0.5 0
-0.875 0.5 0
-1 0.625 0
-0.875 0.625 0
-0.875 0.5 0
-0.75 0.5 0
-0.875 0.625 0
-0.75 0.625 0
-0.5 0.5 0
-0.375 0.5 0
-0.5 0.625 0
-0.375 0.625 0
-0.375 0.5 0
-0.25 0.5 0
-0.375 0.625 0
-0.25 0.625 0
-0.25 0.5 0
-0.125 0.5 0
-0.25 0.625 0
-0.125 0.625 0
-0.125 0.5 0
0 0.5 0
-0.125 0.625 0
0 0.625 0
0.5 0.5 0
0.625 0.5 0
0.5 0.625 0
0.625 0.625 0
0.625 0.5 0
0.75 0.5 0
0.625 0.625 0
0.75 0.625 0
0.75 0.5 0
0.875 0.5 0
0.75 0.625 0
0.875 0.625 0
0.875 0.5 0
1 0.5 0
0.875 0.625 0
1 0.625 0
-1 0.625 0
-0.875 0.625 0
-1 0.75 0
-0.875 0.75 0
-0.5 0.625 0
-0.375 0.625 0
-0.5 0.75 0
-0.375 0.75 0
-0.375 0.625 0
-0.25 0.625 0
-0.375 0.75 0
-0.25 0.75 0
-1 0.75 0
-0.875 0.75 0
-1 0.875 0
-0.875 0.875 0
-0.5 0.75 0
-0.375 0.75 0
-0.5 0.875 0
-0.375 0.875 0
-0.375 0.75 0
-0.25 0.75 0
-0.375 0.875 0
-0.25 0.875 0
-1 0.875 0
-0.875 0.875 0
-1 1 0
-0.875 1 0
-0.5 0.875 0
-0.375 0.875 0
-0.5 1 0
-0.375 1 0
-0.375 0.875 0
-0.25 0.875 0
-0.375 1 0
-0.25 1 0
0.5 -0.25 0
0.5625 -0.25 0
0.5 -0.1875 0
0.5625 -0.1875 0
0.5625 -0.25 0
0.625 -0.25 0
0.5625 -0.1875 0
0.625 -0.1875 0
0.5 -0.1875 0
0.5625 -0.1875 0
0.5 -0.125 0
0.5625 -0.125 0
0.625 -0.25 0
0.6875 -0.25 0
0.625 -0.1875 0
0.6875 -0.1875 0
0.125 -0.125 0
0.1875 -0.125 0
0.125 -0.0625 0
0.1875 -0.0625 0
0.1875 -0.125 0
0.25 -0.125 0
0.1875 -0.0625 0
0.25 -0.0625 0
0.125 -0.0625 0
0.1875 -0.0625 0
0.125 0 0
0.1875 0 0
0.1875 -0.0625 0
0.25 -0.0625 0
0.1875 0 0
0.25 0 0
0.25 -0.125 0
0.3125 -0.125 0
0.25 -0.0625 0
0.3125 -0.0625 0
0.3125 -0.125 0
0.375 -0.125 0
0.3125 -0.0625 0
0.375 -0.0625 0
0.25 -0.0625 0
0.3125 -0.0625 0
0.25 0 0
0.3125 0 0
0.3125 -0.0625 0
0.375 -0.0625 0
0.3125 0 0
0.375 0 0
0.375 -0.125 0
0.4375 -0.125 0
0.375 -0.0625 0
0.4375 -0.0625 0
0.4375 -0.125 0
0.5 -0.125 0
0.4375 -0.0625 0
0.5 -0.0625 0
0.375 -0.0625 0
0.4375 -0.0625 0
0.375 0 0
0.4375 0 0
-0.5 0 0
-0.4375 0 0
-0.5 0.0625 0
-0.4375 0.0625 0
-0.4375 0 0
-0.375 0 0
-0.4375 0.0625 0
-0.375 0.0625 0
-0.5 0.0625 0
-0.4375 0.0625 0
-0.5 0.125 0
-0.4375 0.125 0
-0.4375 0.0625 0
-0.375 0.0625 0
-0.4375 0.125 0
-0.375 0.125 0
-0.375 0 0
-0.3125 0 0
-0.375 0.0625 0
-0.3125 0.0625 0
-0.3125 0 0
-0.25 0 0
-0.3125 0.0625 0
-0.25 0.0625 0
-0.375 0.0625 0
-0.3125 0.0625 0
-0.375 0.125 0
-0.3125 0.125 0
-0.3125 0.0625 0
-0.25 0.0625 0
-0.3125 0.125 0
-0.25 0.125 0
0 0 0
0.0625 0 0
0 0.0625 0
0.0625 0.0625 0
0.0625 0 0
0.125 0 0
0.0625 0.0625 0
0.125 0.0625 0
0 0.0625 0
0.0625 0.0625 0
0 0.125 0
0.0625 0.125 0
0.0625 0.0625 0
0.125 0.0625 0
0.0625 0.125 0
0.125 0.125 0
0.125 0 0
0.1875 0 0
0.125 0.0625 0
0.1875 0.0625 0
0.1875 0 0
0.25 0 0
0.1875 0.0625 0
0.25 0.0625 0
0.125 0.0625 0
0.1875 0.0625 0
0.125 0.125 0
0.1875 0.125 0
0.1875 0.0625 0
0.25 0.0625 0
0.1875 0.125 0
0.25 0.125 0
0.25 0 0
0.3125 0 0
0.25 0.0625 0
0.3125 0.0625 0
0.3125 0 0
0.375 0 0
0.3125 0.0625 0
0.375 0.0625 0
0.25 0.0625 0
0.3125 0.0625 0
0.25 0.125 0
0.3125 0.125 0
0.3125 0.0625 0
0.375 0.0625 0
0.3125 0.125 0
0.375 0.125 0
0.375 0 0
0.4375 0 0
0.375 0.0625 0
0.4375 0.0625 0
0.375 0.0625 0
0.4375 0.0625 0
0.375 0.125 0
0.4375 0.125 0
0.4375 0.0625 0
0.5 0.0625 0
0.4375 0.125 0
0.5 0.125 0
-0.625 0.125 0
-0.5625 0.125 0
-0.625 0.1875 0
-0.5625 0.1875 0
[...]
POINT_DATA 3772
SCALARS solution double 1
LOOKUP_TABLE default
1 0.92388 0.92388 0.71249 0.92388 0.707107 0.71249 0.468158 0.707107 0.382683 0.468158 0.0105826 0.382683 -1.83697e-16 0.0105826 -0.492605 -1.83697e-16 -0.382683 -0.492605 -0.898896 -0.382683 -0.707107 -0.898896 -1.19838 -0.707107 -0.92388 -1.19838 -1.49612 -0.92388 -1 -1.49612 -1.38802 -1 -0.92388 -1.38802 -1.26585 -0.92388 -0.707107 -1.26585 -1.01249 -0.707107 -0.382683 -1.01249 -0.551655 -0.382683 6.12323e-17 -0.551655 -0.165901 0.92388 0.71249 0.707107 0.425266 0.71249 0.468158 0.425266 -0.094398 0.468158 0.0105826 -0.094398 -0.470064 0.0105826 -0.492605 -0.470064 -0.678944 -0.492605 -0.898896 -0.678944 -0.897361 -0.898896 -1.19838 -0.897361 -1.03914 0.707107 0.425266 0.382683 -0.0178196 0.425266 -0.094398 -0.0178196 -0.333266 -0.094398 -0.470064 -0.333266 -0.688795 -0.470064 -0.678944 -0.688795 -1.05678 -0.678944 -0.897361 -1.05678 -1.15391 -0.897361 -1.03914 -1.15391 -0.986604 -1.03914 -0.828534 -0.986604 -0.737274 -0.828534 -0.716599 -0.737274 -0.403508 -0.716599 -0.384965 -0.403508 -0.0313239 0.478923 0 0.273308 0 0.382683 -0.0178196 -1.83697e-16 -0.370357 -0.0178196 -0.333266 -0.370357 -0.743672 -0.333266 -0.688795 -0.743672 -0.99428 -0.688795 -1.05678 -0.99428 -1.02199 -1.05678 -1.15391 -1.02199 -0.995281 -1.15391 -0.986604 -0.995281 -0.921519 -0.986604 -0.737274 -0.921519 -0.615681 -0.737274 -0.403508 -0.615681 -0.142387 -0.403508 -0.0313239 -0.142387 0.262596 -0.0313239 0.368102 0.262596 0.590052 0.368102 0.673023 0.590052 0.825181 0.673023 0.772898 0.825181 0.878942 0.772898 0.78566 0.878942 0.851985 0.78566 0.562222 0.851985 0.628632 0.562222 0.273308 0.628632 0.365457 0.273308 0 0.365457 0 -1.83697e-16 -0.370357 -0.382683 -0.707571 -0.370357 -0.743672 -0.707571 -0.959538 -0.743672 -0.99428 -0.959538 -1.00226 -0.99428 -1.02199 -1.00226 -0.926748 -1.02199 -0.995281 -0.926748 -0.683768 -0.995281 -0.921519 -0.683768 -0.239468 -0.921519 -0.615681 -0.239468 0.168529 -0.615681 -0.142387 0.168529 0.476611 -0.142387 0.262596 0.476611 0.84683 0.262596 0.590052 0.84683 1.15863 0.590052 0.825181 1.15863 1.25482 0.825181 0.878942 1.25482 1.15299 0.878942 0.851985 1.15299 0.974032 0.851985 0.628632 0.974032 0.739075 0.628632 0.365457 0.739075 0.395715 0.365457 0 0.395715 0 -0.382683 -0.707571 -0.707107 -0.837701 -0.707571 -0.959538 -0.837701 -0.791452 -0.959538 -1.00226 -0.791452 -0.704763 -1.00226 -0.926748 -0.704763 -0.528111 -0.926748 -0.683768 -0.528111 -0.168197 -0.683768 -0.239468 -0.168197 0.244028 -0.239468 0.168529 0.244028 0.656151 0.168529 0.476611 0.656151 1.09128 0.476611 0.84683 1.09128 1.34645 0.84683 1.15863 1.34645 1.31162 1.15863 1.25482 1.31162 1.23387 1.25482 1.15299 1.23387 1.23787 1.15299 0.974032 1.23787 0.866342 0.395715 0 0.332745 0 -0.707107 -0.837701 -0.92388 -0.968017 -0.837701 -0.791452 -0.968017 -0.84005 -0.791452 -0.704763 -0.84005 -0.570431 -0.704763 -0.528111 -0.570431 -0.165533 -0.528111 -0.168197 -0.165533 0.226842 -0.168197 0.244028 0.226842 0.549751 0.244028 0.656151 0.549751 0.850009 0.656151 1.09128 0.850009 1.0822 1.09128 1.34645 1.0822 1.14626 1.34645 1.31162 1.14626 1.11504 1.31162 1.23387 1.11504 0.891721 -0.92388 -0.968017 -1 -0.989329 -0.968017 -0.84005 -0.989329 -0.841789 -0.84005 -0.570431 -0.841789 -0.516543 -0.570431 -0.165533 -0.516543 -0.0395605 -0.165533 0.226842 -0.0395605 0.45244 0.226842 0.549751 0.45244 0.854305 0.549751 0.850009 0.854305 1.10649 0.850009 1.0822 1.10649 1.2004 1.0822 1.14626 1.2004 1.04622 -1 -0.989329 -0.92388 -0.709518 -0.989329 -0.841789 -0.709518 -0.410074 -0.841789 -0.516543 -0.410074 -0.11772 -0.516543 -0.0395605 -0.11772 0.281607 0.854305 1.10649 0.8957 1.11506 1.10649 1.2004 1.11506 1.16978 -0.92388 -0.709518 -0.707107 -0.377234 -0.709518 -0.410074 -0.377234 -0.0295655 -0.410074 -0.11772 -0.0295655 0.327889 0.8957 1.11506 0.915862 0.938605 1.11506 1.16978 0.938605 0.788182 -0.707107 -0.377234 -0.382683 0.0206995 -0.377234 -0.0295655 0.0206995 0.358145 -0.0295655 0.327889 0.358145 0.709595 0.853354 0.915862 1.07096 1.07886 0.915862 0.938605 1.07886 0.897674 0.938605 0.788182 0.897674 0.47544 0.788182 0.475332 0.47544 0.0647255 -0.392416 0 -0.266478 0 -0.382683 0.0206995 6.12323e-17 0.364715 0.0206995 0.358145 0.364715 0.687959 0.358145 0.709595 0.687959 0.987473 1.04694 1.07096 1.13676 1.01602 1.07096 1.07886 1.01602 0.949221 1.07886 0.897674 0.949221 0.589431 0.897674 0.47544 0.589431 0.12203 0.47544 0.0647255 0.12203 -0.308342 -0.702645 -0.691372 -1.08568 -0.952508 -0.691372 -0.555366 -0.952508 -0.662011 -0.555366 -0.266478 -0.662011 -0.34041 -0.266478 0 -0.34041 0 6.12323e-17 0.364715 0.382683 0.523631 0.364715 0.687959 0.523631 0.808313 1.13676 1.01602 0.870706 0.725174 1.01602 0.949221 0.725174 0.611549 0.949221 0.589431 0.611549 -0.0312119 0.589431 0.12203 -0.0312119 -0.324364 -1.08568 -0.952508 -1.53251 -1.36375 -0.952508 -0.662011 -1.36375 -0.977666 -0.662011 -0.34041 -0.977666 -0.49804 -0.34041 0 -0.49804 0 0.382683 0.523631 0.707107 0.566468 0.870706 0.725174 0.563815 0.434467 0.725174 0.611549 0.434467 0.329403 0.707107 0.566468 0.92388 0.355076 0.563815 0.434467 0.363529 0.123569 0.434467 0.329403 0.123569 0.0383403 0.92388 0.355076 0 0 0.363529 0.123569 0 0 0.123569 0.0383403 0 0 1.23787 0.342529 0.635812 0.386643 0.342529 0.866342 0.386643 0.324239 0.635812 0.386643 0.364076 0.36305 0.866342 0.695352 0.324239 0.298653 1.14626 1.00748 1.05827 1.06928 1.00748 1.11504 1.06928 0.975641 1.05827 1.06928 1.04622 0.935214 1.06928 0.975641 0.935214 0.785231 1.11504 0.879537 0.975641 0.823375 0.879537 0.891721 0.823375 0.68932 0.975641 0.823375 0.785231 0.676612 0.823375 0.68932 0.676612 0.497366 0.891721 0.623444 0.68932 0.536156 0.623444 0.364076 0.536156 0.367717 0.68932 0.536156 0.497366 0.318515 -0.0395605 0.150927 0.0918702 0.317113 0.150927 0.45244 0.317113 0.526105 0.0918702 0.317113 0.281607 0.448548 0.317113 0.526105 0.448548 0.623977 0.45244 0.610737 0.526105 0.721681 0.610737 0.854305 0.721681 0.887114 0.526105 0.721681 0.623977 0.788955 0.721681 0.887114 0.788955 0.8957 1.2004 1.08192 1.08553 1.07751 1.08192 1.04622 1.07751 0.990216 1.08553 1.07751 1.16978 0.995839 1.07751 0.990216 0.995839 0.816084 1.04622 0.935214 0.990216 0.832257 0.935214 0.785231 0.832257 0.669722 0.990216 0.832257 0.816084 0.715902 0.832257 0.669722 0.715902 0.527841 0.785231 0.676612 0.669722 0.466807 0.676612 0.497366 0.466807 0.280004 0.669722 0.466807 0.527841 0.311972 0.466807 0.280004 0.311972 0.124359 0.497366 0.318515 0.280004 0.123911 0.280004 0.123911 0.124359 -0.0888872 0.123911 -0.0362937 -0.0888872 -0.248074 -0.11772 0.062767 0.210366 0.335596 0.062767 0.281607 0.335596 0.433555 0.210366 0.335596 0.327889 0.523666 0.335596 0.433555 0.523666 0.69536 0.281607 0.448548 0.433555 0.598086 0.448548 0.623977 0.598086 0.749582 0.433555 0.598086 0.69536 0.800002 0.598086 0.749582 0.800002 0.853354 0.623977 0.788955 0.749582 0.810369 0.788955 0.8957 0.810369 0.893696 0.749582 0.810369 0.853354 0.814982 0.810369 0.893696 0.814982 0.915862 1.16978 0.995839 0.840349 0.782008 0.995839 0.816084 0.782008 0.77013 0.840349 0.782008 0.788182 0.592776 0.782008 0.77013 0.592776 0.475332 0.816084 0.715902 0.77013 0.508333 0.715902 0.527841 0.508333 0.229331 0.77013 0.508333 0.475332 0.291058 0.508333 0.229331 0.291058 0.206272 0.527841 0.311972 0.229331 0.0766395 0.311972 0.124359 0.0766395 -0.115448 0.229331 0.0766395 0.206272 -0.00910881 0.0766395 -0.115448 -0.00910881 -0.268262 0.124359 -0.0888872 -0.115448 -0.329226 -0.115448 -0.329226 -0.268262 -0.411255 -0.329226 -0.532577 -0.411255 -0.544218 -0.532577 -0.633115 -0.544218 -0.708871 -0.633115 -0.706174 -0.708871 -0.77478 -0.706174 -0.66827 -0.77478 -0.807711 0.327889 0.523666 0.598356 0.665464 0.523666 0.69536 0.665464 0.764326 0.598356 0.665464 0.709595 0.91218 0.665464 0.764326 0.91218 1.04694 0.69536 0.800002 0.764326 0.89374 0.800002 0.853354 0.89374 1.01198 0.764326 0.89374 1.04694 0.940531 0.89374 1.01198 0.940531 1.07096 0.475332 0.291058 0.246954 0.0853028 0.291058 0.206272 0.0853028 -0.0731427 0.246954 0.0853028 0.0647255 -0.0411603 0.0853028 -0.0731427 -0.0411603 -0.210298 0.206272 -0.00910881 -0.0731427 -0.233122 -0.00910881 -0.268262 -0.233122 -0.33146 -0.0731427 -0.233122 -0.210298 -0.385251 -0.233122 -0.33146 -0.385251 -0.509019 -0.268262 -0.411255 -0.33146 -0.466641 -0.411255 -0.544218 -0.466641 -0.621354 -0.33146 -0.466641 -0.509019 -0.607263 -0.466641 -0.621354 -0.607263 -0.702645 -0.544218 -0.708871 -0.621354 -0.700289 -0.708871 -0.77478 -0.700289 -0.616624 -0.621354 -0.700289 -0.702645 -0.887165 -0.700289 -0.616624 -0.887165 -0.691372 0.709595 0.91218 0.926246 1.00866 0.91218 1.04694 1.00866 1.05669 0.926246 1.00866 0.987473 1.05871 1.00866 1.05669 1.05871 1.13676 0.0647255 -0.0411603 -0.209095 -0.368069 -0.0411603 -0.210298 -0.368069 -0.550628 -0.209095 -0.368069 -0.308342 -0.599735 -0.368069 -0.550628 -0.599735 -0.807836 -0.210298 -0.385251 -0.550628 -0.625101 -0.385251 -0.509019 -0.625101 -0.656648 -0.550628 -0.625101 -0.807836 -0.915527 -0.625101 -0.656648 -0.915527 -1.01661 -0.509019 -0.607263 -0.656648 -0.704225 -0.607263 -0.702645 -0.704225 -0.719383 -0.656648 -0.704225 -1.01661 -1.08027 -0.704225 -0.719383 -1.08027 -1.08568 0.687959 0.706579 0.86279 0.895485 0.706579 0.987473 0.895485 0.928478 0.86279 0.895485 0.808313 0.889235 0.895485 0.928478 0.889235 0.985083 0.987473 1.05871 0.928478 1.01645 1.05871 1.13676 1.01645 1.02235 0.928478 1.01645 0.985083 0.980972 1.01645 1.02235 0.980972 0.870706 0.12203 -0.281228 -0.233853 -0.387658 -0.281228 -0.308342 -0.387658 -0.610277 -0.233853 -0.387658 -0.324364 -0.563117 -0.387658 -0.610277 -0.563117 -0.871134 -0.308342 -0.599735 -0.610277 -0.840444 -0.599735 -0.807836 -0.840444 -0.955128 -0.610277 -0.840444 -0.871134 -1.04527 -0.840444 -0.955128 -1.04527 -1.21232 -0.807836 -0.915527 -0.955128 -1.06637 -0.915527 -1.01661 -1.06637 -1.14797 -0.955128 -1.06637 -1.21232 -1.36517 -1.06637 -1.14797 -1.36517 -1.48266 -1.01661 -1.08027 -1.14797 -1.16822 -1.08027 -1.08568 -1.16822 -1.13487 -1.14797 -1.16822 -1.48266 -1.55891 -1.16822 -1.13487 -1.55891 -1.53251 0.523631 0.648329 0.900377 0.843805 0.648329 0.808313 0.843805 0.758438 0.900377 0.843805 0.566468 0.773556 0.843805 0.758438 0.773556 0.96465 0.808313 0.889235 0.758438 0.842718 0.889235 0.985083 0.842718 0.887102 0.758438 0.842718 0.96465 0.927595 0.842718 0.887102 0.927595 0.812216 0.985083 0.980972 0.887102 0.846889 0.980972 0.870706 0.846889 0.75519 0.887102 0.846889 0.812216 0.698785 0.846889 0.75519 0.698785 0.563815 -0.0312119 -0.147735 -0.103161 -0.346969 -0.147735 -0.324364 -0.346969 -0.568652 -0.103161 -0.346969 -0.562525 -0.529207 -0.346969 -0.568652 -0.529207 -0.4965 -0.324364 -0.563117 -0.568652 -0.785743 -0.563117 -0.871134 -0.785743 -0.880319 -0.568652 -0.785743 -0.4965 -0.862909 -1.04527 -1.21232 -0.994684 -1.03553 -0.994684 -1.03553 -1.11033 -1.07184 -1.21232 -1.36517 -1.03553 -1.05766 -1.36517 -1.48266 -1.05766 -1.14062 -1.03553 -1.05766 -1.07184 -1.09844 -1.48266 -1.55891 -1.14062 -1.15024 -1.55891 -1.53251 -1.15024 -1.13967 -1.14062 -1.15024 -1.14895 -1.02595 -1.15024 -1.13967 -1.02595 -0.94999 -1.53251 -0.653598 -1.13967 -1.13191 -0.653598 -1.36375 -1.13191 -1.06708 -1.13191 -1.06708 -1.01524 -0.844252 0.566468 0.773556 1.23403 0.947741 0.773556 0.96465 0.947741 0.679455 1.23403 0.947741 0.355076 0.615439 0.947741 0.679455 0.615439 1.08582 0.96465 0.927595 0.679455 0.841065 0.812216 0.698785 0.991801 0.746253 0.698785 0.563815 0.746253 0.496718 0.991801 0.746253 0.519125 0.4195 0.746253 0.496718 0.4195 0.363529 0.329403 -0.0931738 -0.469151 -0.317667 -0.469151 -0.317667 0.0383403 -0.409577 -0.529207 -0.4965 -0.493925 -0.811854 -0.493925 -0.811854 -0.269875 -0.739286 -0.81514 -0.661 -0.767471 -0.57273 -0.661 -0.556541 -0.57273 -0.380193 -1.01524 -0.844252 -0.436938 -0.355988 -0.556541 -0.436938 -0.380193 -0.28163 -0.436938 -0.355988 -0.28163 -0.177447 -0.844252 -0.815013 -0.355988 -0.255637 0.355076 0.615439 1.43588 0.658825 1.43588 0.658825 0 0 0.487363 0.896561 0 0 -0.5413 -0.269875 0.427148 0.127368 0.427148 0.127368 0 0 -0.57273 -0.380193 -0.433947 -0.358441 -0.380193 -0.28163 -0.358441 -0.321568 -0.28163 -0.177447 -0.321568 -0.203564 -0.177447 0.00993729 -0.203564 -0.107904 6.12323e-17 0.19509 -0.0769413 -0.140656 0.19509 0.382683 -0.140656 0.00507654 -0.0769413 -0.140656 -0.165901 0.120893 -0.140656 0.00507654 0.120893 0.235334 0.382683 0.55557 0.00507654 0.0861322 0.55557 0.707107 0.0861322 0.0617859 0.00507654 0.0861322 0.235334 0.188407 0.0861322 0.0617859 0.188407 0.306353 0.707107 0.83147 0.0617859 0.091153 0.83147 0.92388 0.091153 0.0418425 0.0617859 0.091153 0.306353 0.139708 0.091153 0.0418425 0.139708 0.235884 0.92388 0.980785 0.0418425 -0.0106167 0.980785 0 -0.0106167 0 0.0418425 -0.0106167 0.235884 0.149509 -0.0106167 0 0.149509 0 -1.19838 -0.800364 -1.08114 -1.19782 -0.800364 -1.49612 -1.19782 -0.998587 -1.08114 -1.19782 -1.03914 -1.00948 -1.19782 -0.998587 -1.00948 -0.828534 -1.49612 -0.753385 -0.998587 -0.891627 -0.753385 -1.38802 -0.891627 -0.963147 -0.998587 -0.891627 -0.828534 -0.902143 -0.891627 -0.963147 -0.902143 -0.716599 -1.38802 -0.557948 -0.963147 -0.82988 -0.557948 -1.26585 -0.82988 -0.640001 -0.963147 -0.82988 -0.716599 -0.523822 -0.82988 -0.640001 -0.523822 -0.384965 -1.26585 -0.279032 -0.640001 -0.511784 -0.279032 -1.01249 -0.511784 -0.370723 -0.640001 -0.511784 -0.384965 -0.363997 -0.511784 -0.370723 -0.363997 0.0425005 -1.01249 0.0955142 -0.370723 -0.0593474 0.0955142 -0.551655 -0.0593474 0.0798457 -0.370723 -0.0593474 0.0425005 0.192036 -0.0593474 0.0798457 0.192036 0.350246 -0.551655 0.529484 0.0798457 0.2814 0.529484 -0.165901 0.2814 0.474085 0.0798457 0.2814 0.350246 0.451283 0.2814 0.474085 0.451283 0.669783 -0.165901 0.120893 0.474085 0.637048 0.120893 0.235334 0.637048 0.597696 0.474085 0.637048 0.669783 0.679729 0.637048 0.597696 0.679729 0.792671 0.235334 0.188407 0.597696 0.673713 0.188407 0.306353 0.673713 0.678065 0.597696 0.673713 0.792671 0.850729 0.673713 0.678065 0.850729 0.764493 0.235884 0.149509 0.39841 0.488195 0.149509 0 0.488195 0 0.39841 0.488195 0.478923 1.05598 0.488195 0 1.05598 0 -0.384965 -0.363997 -0.362738 0.00492074 -0.363997 0.0425005 0.00492074 0.290405 -0.362738 0.00492074 -0.0313239 0.226864 0.00492074 0.290405 0.226864 0.368102 0.0425005 0.192036 0.290405 0.389053 0.192036 0.350246 0.389053 0.539889 0.290405 0.389053 0.368102 0.580935 0.389053 0.539889 0.580935 0.673023 0.350246 0.451283 0.539889 0.735041 0.451283 0.669783 0.735041 0.750014 0.539889 0.735041 0.673023 0.889333 0.735041 0.750014 0.889333 0.772898 0.669783 0.679729 0.750014 0.822017 0.679729 0.792671 0.822017 0.782756 0.750014 0.822017 0.772898 1.06527 0.822017 0.782756 1.06527 0.78566 0.792671 0.850729 0.782756 0.795723 0.850729 0.764493 0.795723 0.624562 0.782756 0.795723 0.78566 1.08473 0.795723 0.624562 1.08473 0.562222 0.764493 0.767289 0.624562 0.623738 0.767289 0.478923 0.623738 0.315083 0.624562 0.623738 0.562222 0.976086 0.623738 0.315083 0.976086 0.273308 0.974032 0.261022 0.784 0.841642 0.261022 0.739075 0.841642 0.640976 0.784 0.841642 0.866342 0.695352 0.841642 0.640976 0.695352 0.694152 0.739075 0.0124016 0.640976 0.391419 0.0124016 0.395715 0.391419 0.240828 0.640976 0.391419 0.694152 0.6327 0.391419 0.240828 0.6327 0.332745 1.23387 0.498402 0.862154 0.883143 0.498402 1.23787 0.883143 0.635812 0.862154 0.883143 0.891721 0.623444 0.883143 0.635812 0.623444 0.364076 0.332745 -0.975288 0.264216 0.183991 -0.975288 0 0.183991 0 0.264216 0.183991 0.102018 0.0543671 0.183991 0 0.0543671 0 0.102018 0.0543671 -0.0712011 -0.0634622 0.0543671 0 -0.0634622 0 -0.0712011 -0.0634622 -0.156195 -0.112988 -0.0634622 0 -0.112988 0 -0.156195 -0.112988 -0.172552 -0.0571593 -0.112988 0 -0.0571593 0 -0.172552 -0.0571593 -0.205109 -0.14953 -0.0571593 0 -0.14953 0 -0.205109 -0.14953 -0.38674 -0.388843 -0.14953 0 -0.388843 0 -0.38674 -0.388843 -0.392416 -1.02752 -0.388843 0 -1.02752 0 -0.77478 -0.807711 -0.616624 -0.709615 -0.807711 -0.82675 -0.709615 -0.603524 -0.616624 -0.709615 -0.691372 -1.00117 -0.709615 -0.603524 -1.00117 -0.555366 -0.82675 -0.644188 -0.603524 -0.594047 -0.644188 -0.392416 -0.594047 -0.290152 -0.603524 -0.594047 -0.555366 -0.899939 -0.594047 -0.290152 -0.899939 -0.266478 0.611549 0.297708 -0.0350474 -0.067009 0.297708 -0.0312119 -0.067009 -0.103161 -0.0350474 -0.067009 0.329403 -0.0931738 -0.067009 -0.103161 -0.0931738 -0.562525 -1.36375 -0.382405 -1.06708 -0.904579 -0.382405 -0.977666 -0.904579 -0.78845 -1.06708 -0.904579 -0.844252 -0.815013 -0.904579 -0.78845 -0.815013 -0.712474 -0.977666 0.0410358 -0.78845 -0.608641 0.0410358 -0.49804 -0.608641 -0.430748 -0.78845 -0.608641 -0.712474 -0.602234 -0.608641 -0.430748 -0.602234 -0.339769 -0.49804 0.474533 -0.430748 -0.153481 0.474533 0 -0.153481 0 -0.430748 -0.153481 -0.339769 -0.238533 -0.153481 0 -0.238533 0 0.519125 0.4195 0.896561 0.623338 0.4195 0.363529 0.623338 0.166602 0.896561 0.623338 0 0 0.623338 0.166602 0 0 0.0383403 -0.409577 -0.947056 -0.364097 -0.409577 -0.5413 -0.364097 0.427148 -0.947056 -0.364097 0 0 -0.364097 0.427148 0 0 0.930267 0.450627 0.50909 0.138898 0.450627 0 0.138898 0 0.50909 0.138898 0 0 0.138898 0 0 0 0.306353 1.43731 0.613022 0.202335 1.43731 0.139708 0.202335 0.356549 0.613022 0.202335 0.678065 0.694243 0.202335 0.356549 0.694243 0.598972 0.139708 1.33728 0.356549 0.387291 1.33728 0.235884 0.387291 0.238271 0.356549 0.387291 0.598972 0.335215 0.387291 0.238271 0.335215 0.39841 0.678065 0.694243 0.669478 0.659197 0.694243 0.598972 0.659197 0.597098 0.669478 0.659197 0.764493 1.05425 0.659197 0.597098 1.05425 0.767289 0.598972 0.335215 0.597098 0.62505 0.335215 0.39841 0.62505 0.127744 0.597098 0.62505 0.767289 1.09007 0.62505 0.127744 1.09007 0.478923 0.386643 0.233639 0.311931 0.283325 0.233639 0.324239 0.283325 0.218507 0.311931 0.283325 0.36305 0.185663 0.283325 0.218507 0.185663 0.0454765 0.695352 -0.376871 0.242277 0.432879 -0.376871 0.694152 0.432879 0.177259 0.242277 0.432879 0.298653 0.124785 0.432879 0.177259 0.124785 0.0760548 0.324239 -0.0229593 0.218507 0.202519 -0.0229593 0.298653 0.202519 0.104184 0.218507 0.202519 0.0454765 0.0019979 0.202519 0.104184 0.0019979 -0.0501966 0.298653 0.124785 0.104184 0.0880774 0.124785 0.0760548 0.0880774 0.111828 0.104184 0.0880774 -0.0501966 -0.0616286 0.0880774 0.111828 -0.0616286 -0.109672 0.694152 -0.42221 0.177259 0.0651032 -0.42221 0.6327 0.0651032 0.0977206 0.177259 0.0651032 0.0760548 0.248662 0.0651032 0.0977206 0.248662 0.10207 0.6327 -0.641185 0.0977206 0.145071 -0.641185 0.332745 0.145071 0.0841022 0.0977206 0.145071 0.10207 0.182888 0.145071 0.0841022 0.182888 0.264216 0.0760548 0.248662 0.111828 0.00841355 0.248662 0.10207 0.00841355 0.0171055 0.111828 0.00841355 -0.109672 -0.0845156 0.00841355 0.0171055 -0.0845156 -0.037108 0.10207 0.182888 0.0171055 0.0472228 0.182888 0.264216 0.0472228 0.000903534 0.0171055 0.0472228 -0.037108 -0.0151297 0.0472228 0.000903534 -0.0151297 0.102018 0.536156 0.329352 0.406624 0.353948 0.329352 0.367717 0.353948 0.254786 0.406624 0.353948 0.318515 0.226367 0.353948 0.254786 0.226367 0.144583 0.364076 0.214403 0.337518 0.241989 0.214403 0.36305 0.241989 0.127567 0.337518 0.241989 0.367717 0.226341 0.241989 0.127567 0.226341 0.0915403 0.36305 0.185663 0.127567 0.110861 0.185663 0.0454765 0.110861 0.100525 0.127567 0.110861 0.0915403 -0.00194065 0.110861 0.100525 -0.00194065 -0.0875338 0.367717 0.226341 0.254786 0.174883 0.226341 0.0915403 0.174883 0.0944125 0.254786 0.174883 0.144583 0.0875812 0.174883 0.0944125 0.0875812 0.00274853 0.0915403 -0.00194065 0.0944125 -0.0285766 -0.00194065 -0.0875338 -0.0285766 -0.140393 0.0944125 -0.0285766 0.00274853 -0.0711975 -0.0285766 -0.140393 -0.0711975 -0.143698 0.0454765 0.0019979 0.100525 -0.0129716 0.0019979 -0.0501966 -0.0129716 -0.1085 0.100525 -0.0129716 -0.0875338 -0.104341 -0.0129716 -0.1085 -0.104341 -0.122303 -0.0501966 -0.0616286 -0.1085 -0.146328 -0.0616286 -0.109672 -0.146328 -0.142818 -0.1085 -0.146328 -0.122303 -0.19492 -0.146328 -0