# vtk DataFile Version 3.0
#This file was generated by the deal.II library on 2020/5/26 at 20:15:15
ASCII
DATASET UNSTRUCTURED_GRID

POINTS 13504 double
-0.25 -0.875 0
-0.125 -0.875 0
-0.25 -0.75 0
-0.125 -0.75 0
-0.375 -0.75 0
-0.25 -0.75 0
-0.375 -0.625 0
-0.25 -0.625 0
-0.5 -0.625 0
-0.375 -0.625 0
-0.5 -0.5 0
-0.375 -0.5 0
-0.625 -0.5 0
-0.5 -0.5 0
-0.625 -0.375 0
-0.5 -0.375 0
-0.75 -0.375 0
-0.625 -0.375 0
-0.75 -0.25 0
-0.625 -0.25 0
0.25 -0.375 0
0.375 -0.375 0
0.25 -0.25 0
0.375 -0.25 0
-0.875 -0.25 0
-0.75 -0.25 0
-0.875 -0.125 0
-0.75 -0.125 0
0.125 -0.25 0
0.25 -0.25 0
0.125 -0.125 0
0.25 -0.125 0
-1 -0.125 0
-0.875 -0.125 0
-1 0 0
-0.875 0 0
0 -0.125 0
0.125 -0.125 0
0 0 0
0.125 0 0
-0.125 0 0
0 0 0
-0.125 0.125 0
0 0.125 0
-0.25 0.125 0
-0.125 0.125 0
-0.25 0.25 0
-0.125 0.25 0
-0.375 0.25 0
-0.25 0.25 0
-0.375 0.375 0
-0.25 0.375 0
-0.5 0.375 0
-0.375 0.375 0
-0.5 0.5 0
-0.375 0.5 0
0.875 0.125 0
0.9375 0.125 0
0.875 0.1875 0
0.9375 0.1875 0
0.875 0.1875 0
0.9375 0.1875 0
0.875 0.25 0
0.9375 0.25 0
-0.6875 0.5 0
-0.625 0.5 0
-0.6875 0.5625 0
-0.625 0.5625 0
-0.6875 0.5625 0
-0.625 0.5625 0
-0.6875 0.625 0
-0.625 0.625 0
-1 -1 0
-0.9375 -1 0
-1 -0.9375 0
-0.9375 -0.9375 0
-0.9375 -1 0
-0.875 -1 0
-0.9375 -0.9375 0
-0.875 -0.9375 0
-1 -0.9375 0
-0.9375 -0.9375 0
-1 -0.875 0
-0.9375 -0.875 0
-0.125 -1 0
-0.0625 -1 0
-0.125 -0.9375 0
-0.0625 -0.9375 0
-0.0625 -1 0
0 -1 0
-0.0625 -0.9375 0
0 -0.9375 0
-0.125 -0.9375 0
-0.0625 -0.9375 0
-0.125 -0.875 0
-0.0625 -0.875 0
-0.0625 -0.9375 0
0 -0.9375 0
-0.0625 -0.875 0
0 -0.875 0
0 -1 0
0.0625 -1 0
0 -0.9375 0
0.0625 -0.9375 0
0.0625 -1 0
0.125 -1 0
0.0625 -0.9375 0
0.125 -0.9375 0
0 -0.9375 0
0.0625 -0.9375 0
0 -0.875 0
0.0625 -0.875 0
0.8125 -0.9375 0
0.875 -0.9375 0
0.8125 -0.875 0
0.875 -0.875 0
0.875 -0.9375 0
0.9375 -0.9375 0
0.875 -0.875 0
0.9375 -0.875 0
0.9375 -0.9375 0
1 -0.9375 0
0.9375 -0.875 0
1 -0.875 0
-0.125 -0.875 0
-0.0625 -0.875 0
-0.125 -0.8125 0
-0.0625 -0.8125 0
-0.0625 -0.875 0
0 -0.875 0
-0.0625 -0.8125 0
0 -0.8125 0
-0.125 -0.8125 0
-0.0625 -0.8125 0
-0.125 -0.75 0
-0.0625 -0.75 0
-0.25 -0.75 0
-0.1875 -0.75 0
-0.25 -0.6875 0
-0.1875 -0.6875 0
-0.1875 -0.75 0
-0.125 -0.75 0
-0.1875 -0.6875 0
-0.125 -0.6875 0
-0.25 -0.6875 0
-0.1875 -0.6875 0
-0.25 -0.625 0
-0.1875 -0.625 0
-0.5625 -0.625 0
-0.5 -0.625 0
-0.5625 -0.5625 0
-0.5 -0.5625 0
-0.625 -0.5625 0
-0.5625 -0.5625 0
-0.625 -0.5 0
-0.5625 -0.5 0
-0.5625 -0.5625 0
-0.5 -0.5625 0
-0.5625 -0.5 0
-0.5 -0.5 0
0.625 -0.625 0
0.6875 -0.625 0
0.625 -0.5625 0
0.6875 -0.5625 0
0.625 -0.5625 0
0.6875 -0.5625 0
0.625 -0.5 0
0.6875 -0.5 0
-0.6875 -0.5 0
-0.625 -0.5 0
-0.6875 -0.4375 0
-0.625 -0.4375 0
-0.75 -0.4375 0
-0.6875 -0.4375 0
-0.75 -0.375 0
-0.6875 -0.375 0
-0.6875 -0.4375 0
-0.625 -0.4375 0
-0.6875 -0.375 0
-0.625 -0.375 0
0.5 -0.5 0
0.5625 -0.5 0
0.5 -0.4375 0
0.5625 -0.4375 0
0.5625 -0.5 0
0.625 -0.5 0
0.5625 -0.4375 0
0.625 -0.4375 0
0.5 -0.4375 0
0.5625 -0.4375 0
0.5 -0.375 0
0.5625 -0.375 0
-0.8125 -0.375 0
-0.75 -0.375 0
-0.8125 -0.3125 0
-0.75 -0.3125 0
-0.875 -0.3125 0
-0.8125 -0.3125 0
-0.875 -0.25 0
-0.8125 -0.25 0
-0.8125 -0.3125 0
-0.75 -0.3125 0
-0.8125 -0.25 0
-0.75 -0.25 0
0.375 -0.375 0
0.4375 -0.375 0
0.375 -0.3125 0
0.4375 -0.3125 0
0.4375 -0.375 0
0.5 -0.375 0
0.4375 -0.3125 0
0.5 -0.3125 0
0.375 -0.3125 0
0.4375 -0.3125 0
0.375 -0.25 0
0.4375 -0.25 0
-0.9375 -0.25 0
-0.875 -0.25 0
-0.9375 -0.1875 0
-0.875 -0.1875 0
-1 -0.1875 0
-0.9375 -0.1875 0
-1 -0.125 0
-0.9375 -0.125 0
-0.9375 -0.1875 0
-0.875 -0.1875 0
-0.9375 -0.125 0
-0.875 -0.125 0
-0.75 -0.25 0
-0.6875 -0.25 0
-0.75 -0.1875 0
-0.6875 -0.1875 0
-0.6875 -0.25 0
-0.625 -0.25 0
-0.6875 -0.1875 0
-0.625 -0.1875 0
-0.75 -0.1875 0
-0.6875 -0.1875 0
-0.75 -0.125 0
-0.6875 -0.125 0
0.25 -0.25 0
0.3125 -0.25 0
0.25 -0.1875 0
0.3125 -0.1875 0
0.3125 -0.25 0
0.375 -0.25 0
0.3125 -0.1875 0
0.375 -0.1875 0
0.25 -0.1875 0
0.3125 -0.1875 0
0.25 -0.125 0
0.3125 -0.125 0
0.125 -0.125 0
0.1875 -0.125 0
0.125 -0.0625 0
0.1875 -0.0625 0
0.1875 -0.125 0
0.25 -0.125 0
0.1875 -0.0625 0
0.25 -0.0625 0
0.125 -0.0625 0
0.1875 -0.0625 0
0.125 0 0
0.1875 0 0
-1 0 0
-0.9375 0 0
-1 0.0625 0
-0.9375 0.0625 0
-0.9375 0 0
-0.875 0 0
-0.9375 0.0625 0
-0.875 0.0625 0
-1 0.0625 0
-0.9375 0.0625 0
-1 0.125 0
-0.9375 0.125 0
0 0 0
0.0625 0 0
0 0.0625 0
0.0625 0.0625 0
0.0625 0 0
0.125 0 0
0.0625 0.0625 0
0.125 0.0625 0
0 0.0625 0
0.0625 0.0625 0
0 0.125 0
0.0625 0.125 0
-0.125 0.125 0
-0.0625 0.125 0
-0.125 0.1875 0
-0.0625 0.1875 0
-0.0625 0.125 0
0 0.125 0
-0.0625 0.1875 0
0 0.1875 0
-0.125 0.1875 0
-0.0625 0.1875 0
-0.125 0.25 0
-0.0625 0.25 0
0.8125 0.125 0
0.875 0.125 0
0.8125 0.1875 0
0.875 0.1875 0
0.75 0.1875 0
0.8125 0.1875 0
0.75 0.25 0
0.8125 0.25 0
0.8125 0.1875 0
0.875 0.1875 0
0.8125 0.25 0
0.875 0.25 0
-0.4375 0.25 0
-0.375 0.25 0
-0.4375 0.3125 0
-0.375 0.3125 0
-0.5 0.3125 0
-0.4375 0.3125 0
-0.5 0.375 0
-0.4375 0.375 0
-0.4375 0.3125 0
-0.375 0.3125 0
-0.4375 0.375 0
-0.375 0.375 0
-0.25 0.25 0
-0.1875 0.25 0
-0.25 0.3125 0
-0.1875 0.3125 0
-0.1875 0.25 0
-0.125 0.25 0
-0.1875 0.3125 0
-0.125 0.3125 0
-0.25 0.3125 0
-0.1875 0.3125 0
-0.25 0.375 0
-0.1875 0.375 0
0.4375 0.3125 0
0.5 0.3125 0
0.4375 0.375 0
0.5 0.375 0
-0.5625 0.375 0
-0.5 0.375 0
-0.5625 0.4375 0
-0.5 0.4375 0
-0.625 0.4375 0
-0.5625 0.4375 0
-0.625 0.5 0
-0.5625 0.5 0
-0.5625 0.4375 0
-0.5 0.4375 0
-0.5625 0.5 0
-0.5 0.5 0
-0.375 0.375 0
-0.3125 0.375 0
-0.375 0.4375 0
-0.3125 0.4375 0
-0.3125 0.375 0
-0.25 0.375 0
-0.3125 0.4375 0
-0.25 0.4375 0
-0.375 0.4375 0
-0.3125 0.4375 0
-0.375 0.5 0
-0.3125 0.5 0
0.3125 0.4375 0
0.375 0.4375 0
0.3125 0.5 0
0.375 0.5 0
0.5 0.375 0
0.5625 0.375 0
0.5 0.4375 0
0.5625 0.4375 0
0.5625 0.375 0
0.625 0.375 0
0.5625 0.4375 0
0.625 0.4375 0
0.5 0.4375 0
0.5625 0.4375 0
0.5 0.5 0
0.5625 0.5 0
0.5625 0.4375 0
0.625 0.4375 0
0.5625 0.5 0
0.625 0.5 0
0.625 0.375 0
0.6875 0.375 0
0.625 0.4375 0
0.6875 0.4375 0
0.625 0.4375 0
0.6875 0.4375 0
0.625 0.5 0
0.6875 0.5 0
-0.1875 -1 0
-0.125 -1 0
-0.1875 -0.9375 0
-0.125 -0.9375 0
-0.25 -0.9375 0
-0.1875 -0.9375 0
-0.25 -0.875 0
-0.1875 -0.875 0
-0.1875 -0.9375 0
-0.125 -0.9375 0
-0.1875 -0.875 0
-0.125 -0.875 0
-0.5 0.5 0
-0.4375 0.5 0
-0.5 0.5625 0
-0.4375 0.5625 0
-0.4375 0.5 0
-0.375 0.5 0
-0.4375 0.5625 0
-0.375 0.5625 0
-0.5 0.5625 0
-0.4375 0.5625 0
-0.5 0.625 0
-0.4375 0.625 0
0.375 0.5 0
0.4375 0.5 0
0.375 0.5625 0
0.4375 0.5625 0
0.4375 0.5 0
0.5 0.5 0
0.4375 0.5625 0
0.5 0.5625 0
0.375 0.5625 0
0.4375 0.5625 0
0.375 0.625 0
0.4375 0.625 0
0.4375 0.5625 0
0.5 0.5625 0
0.4375 0.625 0
0.5 0.625 0
0.5 0.5 0
0.5625 0.5 0
0.5 0.5625 0
0.5625 0.5625 0
0.5625 0.5 0
0.625 0.5 0
0.5625 0.5625 0
0.625 0.5625 0
0.5 0.5625 0
0.5625 0.5625 0
0.5 0.625 0
0.5625 0.625 0
-0.625 0.625 0
-0.5625 0.625 0
-0.625 0.6875 0
-0.5625 0.6875 0
-0.5625 0.625 0
-0.5 0.625 0
-0.5625 0.6875 0
-0.5 0.6875 0
0.1875 0.625 0
0.25 0.625 0
0.1875 0.6875 0
0.25 0.6875 0
0.125 0.6875 0
0.1875 0.6875 0
0.125 0.75 0
0.1875 0.75 0
0.1875 0.6875 0
0.25 0.6875 0
0.1875 0.75 0
0.25 0.75 0
0.25 0.625 0
0.3125 0.625 0
0.25 0.6875 0
0.3125 0.6875 0
0.3125 0.625 0
0.375 0.625 0
0.3125 0.6875 0
0.375 0.6875 0
0.25 0.6875 0
0.3125 0.6875 0
0.25 0.75 0
0.3125 0.75 0
0.3125 0.6875 0
0.375 0.6875 0
0.3125 0.75 0
0.375 0.75 0
0.375 0.625 0
0.4375 0.625 0
0.375 0.6875 0
0.4375 0.6875 0
0.0625 0.8125 0
0.125 0.8125 0
0.0625 0.875 0
0.125 0.875 0
0.25 0.75 0
0.3125 0.75 0
0.25 0.8125 0
0.3125 0.8125 0
0.3125 0.75 0
0.375 0.75 0
0.3125 0.8125 0
0.375 0.8125 0
0.25 0.8125 0
0.3125 0.8125 0
0.25 0.875 0
0.3125 0.875 0
-0.875 0.875 0
-0.8125 0.875 0
-0.875 0.9375 0
-0.8125 0.9375 0
-0.875 0.9375 0
-0.8125 0.9375 0
-0.875 1 0
-0.8125 1 0
-0.3125 -0.875 0
-0.25 -0.875 0
-0.3125 -0.8125 0
-0.25 -0.8125 0
-0.375 -0.8125 0
-0.3125 -0.8125 0
-0.375 -0.75 0
-0.3125 -0.75 0
-0.3125 -0.8125 0
-0.25 -0.8125 0
-0.3125 -0.75 0
-0.25 -0.75 0
0.6875 -0.875 0
0.75 -0.875 0
0.6875 -0.8125 0
0.75 -0.8125 0
0.625 -0.8125 0
0.6875 -0.8125 0
0.625 -0.75 0
0.6875 -0.75 0
0.6875 -0.8125 0
0.75 -0.8125 0
0.6875 -0.75 0
0.75 -0.75 0
0.75 -0.875 0
0.8125 -0.875 0
0.75 -0.8125 0
0.8125 -0.8125 0
0.8125 -0.875 0
0.875 -0.875 0
0.8125 -0.8125 0
0.875 -0.8125 0
0.75 -0.8125 0
0.8125 -0.8125 0
0.75 -0.75 0
0.8125 -0.75 0
0.8125 -0.8125 0
0.875 -0.8125 0
0.8125 -0.75 0
0.875 -0.75 0
0.875 -0.875 0
0.9375 -0.875 0
0.875 -0.8125 0
0.9375 -0.8125 0
0.9375 -0.875 0
1 -0.875 0
0.9375 -0.8125 0
1 -0.8125 0
-0.4375 -0.75 0
-0.375 -0.75 0
-0.4375 -0.6875 0
-0.375 -0.6875 0
-0.5 -0.6875 0
-0.4375 -0.6875 0
-0.5 -0.625 0
-0.4375 -0.625 0
-0.4375 -0.6875 0
-0.375 -0.6875 0
-0.4375 -0.625 0
-0.375 -0.625 0
0.5 -0.75 0
0.5625 -0.75 0
0.5 -0.6875 0
0.5625 -0.6875 0
0.5625 -0.75 0
0.625 -0.75 0
0.5625 -0.6875 0
0.625 -0.6875 0
0.5 -0.6875 0
0.5625 -0.6875 0
0.5 -0.625 0
0.5625 -0.625 0
0.5625 -0.6875 0
0.625 -0.6875 0
0.5625 -0.625 0
0.625 -0.625 0
0.625 -0.75 0
0.6875 -0.75 0
0.625 -0.6875 0
0.6875 -0.6875 0
0.6875 -0.75 0
0.75 -0.75 0
0.6875 -0.6875 0
0.75 -0.6875 0
0.625 -0.6875 0
0.6875 -0.6875 0
0.625 -0.625 0
0.6875 -0.625 0
0.6875 -0.6875 0
0.75 -0.6875 0
0.6875 -0.625 0
0.75 -0.625 0
-0.375 -0.625 0
-0.3125 -0.625 0
-0.375 -0.5625 0
-0.3125 -0.5625 0
-0.3125 -0.625 0
-0.25 -0.625 0
-0.3125 -0.5625 0
-0.25 -0.5625 0
-0.375 -0.5625 0
-0.3125 -0.5625 0
-0.375 -0.5 0
-0.3125 -0.5 0
0.4375 -0.625 0
0.5 -0.625 0
0.4375 -0.5625 0
0.5 -0.5625 0
0.375 -0.5625 0
0.4375 -0.5625 0
0.375 -0.5 0
0.4375 -0.5 0
0.4375 -0.5625 0
0.5 -0.5625 0
0.4375 -0.5 0
0.5 -0.5 0
-0.5 -0.5 0
-0.4375 -0.5 0
-0.5 -0.4375 0
-0.4375 -0.4375 0
-0.4375 -0.5 0
-0.375 -0.5 0
-0.4375 -0.4375 0
-0.375 -0.4375 0
-0.5 -0.4375 0
-0.4375 -0.4375 0
-0.5 -0.375 0
-0.4375 -0.375 0
0.3125 -0.5 0
0.375 -0.5 0
0.3125 -0.4375 0
0.375 -0.4375 0
0.25 -0.4375 0
0.3125 -0.4375 0
0.25 -0.375 0
0.3125 -0.375 0
0.3125 -0.4375 0
0.375 -0.4375 0
0.3125 -0.375 0
0.375 -0.375 0
0.375 -0.5 0
0.4375 -0.5 0
0.375 -0.4375 0
0.4375 -0.4375 0
0.4375 -0.5 0
0.5 -0.5 0
0.4375 -0.4375 0
0.5 -0.4375 0
0.375 -0.4375 0
0.4375 -0.4375 0
[...]
POINT_DATA 13504
SCALARS solution double 1
LOOKUP_TABLE default
-0.924666 -1.00109 -1.00494 -0.928961 -0.927256 -1.00494 -1.00166 -0.925277 -0.924891 -1.00166 -1.00072 -0.924438 -0.924065 -1.00072 -1.00048 -0.924097 -0.923924 -1.00048 -1.00036 -0.924027 0.92999 1.00816 1.01186 0.936395 -0.923835 -1.00036 -1.00036 -0.924031 0.93307 1.01186 1.00867 0.9333 -0.92388 -1.00036 -1 -0.924016 0.930539 1.00867 1.0051 0.929395 0.927114 1.0051 1.00096 0.924309 0.924364 1.00096 1.00126 0.925309 0.924162 1.00126 1.00016 0.92518 0.923814 1.00016 0.998548 0.923575 -0.66178 -0.493849 -0.486213 -0.345011 -0.486213 -0.345011 -0.432011 -0.374889 0.830973 0.920634 0.920827 0.971759 0.920827 0.971759 0.97062 0.98846 1 0.980785 0.980785 0.923953 0.980785 0.92388 0.923953 0.831529 0.980785 0.923953 0.92388 0.831478 -0.92388 -0.980785 -0.981207 -1.00067 -0.980785 -1 -1.00067 -0.981626 -0.981207 -1.00067 -1.00109 -0.982332 -1.00067 -0.981626 -0.982332 -0.926109 -1 -0.980785 -0.981626 -0.924854 -0.980785 -0.92388 -0.924854 -0.832487 -0.981626 -0.924854 -0.926109 -0.83513 0.726009 0.616174 0.259145 0.255921 0.616174 0.431439 0.255921 0.191532 0.431439 0 0.191532 0 -1.00109 -0.982332 -0.984273 -0.927922 -0.982332 -0.926109 -0.927922 -0.83756 -0.984273 -0.927922 -0.928961 -0.838849 -1.00494 -0.977026 -0.982989 -0.927459 -0.977026 -0.928961 -0.927459 -0.834046 -0.982989 -0.927459 -0.925277 -0.833426 -0.832047 -0.924891 -0.924216 -0.981406 -0.831659 -0.924216 -0.924065 -0.980553 -0.924216 -0.981406 -0.980553 -1.00072 0.950913 0.925979 0.941488 0.88521 0.941488 0.88521 0.912162 0.818492 -0.831488 -0.924065 -0.92391 -0.981001 -0.831436 -0.92391 -0.923924 -0.980677 -0.92391 -0.981001 -0.980677 -1.00048 0.983837 0.96535 0.9831 0.928076 0.96535 0.912162 0.928076 0.838159 0.9831 0.928076 0.936266 0.849574 -0.831424 -0.923924 -0.923817 -0.980862 -0.831346 -0.923817 -0.923835 -0.980725 -0.923817 -0.980862 -0.980725 -1.00036 1.00816 0.990329 0.993815 0.938412 0.990329 0.936266 0.938412 0.851741 0.993815 0.938412 0.936395 0.851431 -0.831351 -0.923835 -0.923827 -0.980822 -0.83147 -0.923827 -0.92388 -0.980676 -0.923827 -0.980822 -0.980676 -1.00036 -1.00036 -0.980724 -0.980784 -0.923986 -0.980724 -0.924027 -0.923986 -0.831473 -0.980784 -0.923986 -0.924031 -0.831566 1.01186 0.969549 0.990426 0.938411 0.969549 0.936395 0.938411 0.845281 0.990426 0.938411 0.9333 0.844791 1.00867 0.973109 0.986581 0.933119 0.973109 0.9333 0.933119 0.839782 0.986581 0.933119 0.929395 0.839417 -1 -0.9805 -0.980785 -0.923971 -0.9805 -0.924016 -0.923971 -0.831294 -0.980785 -0.923971 -0.92388 -0.831465 1.0051 0.976279 0.984395 0.929972 0.976279 0.929395 0.929972 0.836812 0.984395 0.929972 0.924309 0.833156 1.00096 0.979688 0.982275 0.926488 0.979688 0.924309 0.926488 0.834339 0.982275 0.926488 0.925309 0.833517 -0.610394 -0.66178 -0.570579 -0.486213 -0.705508 -0.570579 -0.614146 -0.485006 -0.570579 -0.486213 -0.485006 -0.432011 0.832341 0.924162 0.925512 0.982731 0.833022 0.925512 0.923814 0.978079 0.925512 0.982731 0.978079 1.00016 1.00126 0.979306 0.982485 0.926754 0.979306 0.925309 0.926754 0.834215 0.982485 0.926754 0.92518 0.832762 -0.693315 -0.805606 -0.749078 -0.835535 0.834329 0.923814 0.927161 0.982209 0.836286 0.927161 0.920634 0.974482 0.927161 0.982209 0.974482 0.998548 1.00016 0.979662 0.982285 0.925519 0.979662 0.92518 0.925519 0.83248 0.982285 0.925519 0.923575 0.832403 -0.689137 -0.796615 -0.806988 -0.888085 -0.835535 -0.897521 -0.93988 -0.965239 -0.897521 -0.923277 -0.965239 -0.942064 -0.93988 -0.965239 -0.980756 -0.966229 -0.965239 -0.942064 -0.966229 -0.910015 -0.923277 -0.901965 -0.942064 -0.88167 -0.942064 -0.88167 -0.910015 -0.819458 -0.83147 -0.92388 -0.923908 -0.981207 -0.831843 -0.923908 -0.924666 -0.979759 -0.923908 -0.981207 -0.979759 -1.00109 0.998548 0.977615 0.977362 0.92239 0.977615 0.923575 0.92239 0.83165 0.977362 0.92239 0.919056 0.829371 -0.888085 -0.947987 -0.957636 -0.989942 -0.947987 -0.980756 -0.989942 -0.982763 -0.957636 -0.989942 -0.982143 -0.983643 -0.989942 -0.982763 -0.983643 -0.938937 -0.980756 -0.966229 -0.982763 -0.925706 -0.966229 -0.910015 -0.925706 -0.83836 -0.982763 -0.925706 -0.938937 -0.845389 0.98846 0.972873 0.970444 0.916573 0.972873 0.919056 0.916573 0.82373 -0.829996 -0.911891 -0.904568 -0.949495 -0.823119 -0.904568 -0.896921 -0.93657 -0.904568 -0.949495 -0.93657 -0.979492 -0.911891 -0.958878 -0.949495 -0.980248 -0.958878 -0.982143 -0.980248 -0.953888 -0.949495 -0.980248 -0.979492 -0.945471 -0.980248 -0.953888 -0.945471 -0.882637 -0.982143 -0.983643 -0.953888 -0.935877 -0.874007 -0.888376 -0.792381 -0.829605 -0.979492 -0.945471 -0.983017 -0.835362 -0.945471 -0.882637 -0.835362 -0.798508 -0.983017 -0.835362 -0.870556 -0.669904 0.937882 0.682838 0.709128 0.260834 0.709128 0.260834 0 0 -0.831425 -0.924666 -0.92402 -0.983341 -0.832058 -0.92402 -0.927256 -0.978653 -0.92402 -0.983341 -0.978653 -1.00494 0.49796 0.417181 0.30989 0.372675 0.412911 0.30989 0.710564 0.764824 0.30989 0.372675 0.764824 0.742605 0.417181 0.259145 0.372675 0.345729 0.259145 0.255921 0.345729 0.287488 0.372675 0.345729 0.742605 0.585725 0.345729 0.287488 0.585725 0.480176 0.255921 0.191532 0.287488 0.00723179 0.191532 0 0.00723179 0 -0.83348 -0.927256 -0.925678 -0.983284 -0.832745 -0.925678 -0.924891 -0.980192 -0.925678 -0.983284 -0.980192 -1.00166 0.601525 0.673152 0.746789 0.833449 0.673152 0.710564 0.833449 0.868372 0.746789 0.833449 0.877103 0.93599 0.833449 0.868372 0.93599 0.950913 0.710564 0.764824 0.868372 0.862765 0.764824 0.742605 0.862765 0.815399 0.868372 0.862765 0.950913 0.925979 0.862765 0.815399 0.925979 0.846532 -1.00166 -0.979851 -0.981332 -0.924948 -0.979851 -0.925277 -0.924948 -0.832256 -0.981332 -0.924948 -0.924438 -0.832126 0.800503 0.877103 0.892254 0.947592 0.810985 0.892254 0.907394 0.965206 0.892254 0.947592 0.965206 0.983837 -1.00072 -0.980455 -0.980966 -0.924336 -0.980455 -0.924438 -0.924336 -0.83181 -0.980966 -0.924336 -0.924097 -0.831678 0.820263 0.907394 0.91949 0.981402 0.830611 0.91949 0.92999 0.974952 0.91949 0.981402 0.974952 1.00816 0.907394 0.965206 0.981402 1.00189 0.965206 0.983837 1.00189 0.9831 0.981402 1.00189 1.00816 0.990329 1.00189 0.9831 0.990329 0.936266 -1.00048 -0.980611 -0.980816 -0.924065 -0.980611 -0.924097 -0.924065 -0.831523 -0.980816 -0.924065 -0.924027 -0.831557 0.834431 0.92999 0.928385 0.991554 0.836208 0.928385 0.93307 0.973937 0.928385 0.991554 0.973937 1.01186 0.836841 0.93307 0.928629 0.989799 0.835862 0.928629 0.930539 0.97607 0.928629 0.989799 0.97607 1.00867 -1.00036 -0.980729 -0.98082 -0.924028 -0.980729 -0.924031 -0.924028 -0.831514 -0.98082 -0.924028 -0.924016 -0.831599 0.83536 0.930539 0.926977 0.986409 0.833967 0.926977 0.927114 0.978311 0.926977 0.986409 0.978311 1.0051 -0.446404 -0.415713 -0.492224 -0.506765 0.833523 0.927114 0.927072 0.984617 0.833483 0.927072 0.924364 0.979874 0.927072 0.984617 0.979874 1.00096 -0.453652 -0.492224 -0.764318 -0.831694 -0.831694 -0.895592 -0.610394 -0.66178 0.831794 0.924364 0.924476 0.982096 0.831916 0.924476 0.924162 0.979589 0.924476 0.982096 0.979589 1.00126 -0.714451 -0.745621 -0.633429 -0.693926 -0.632846 -0.633429 -0.884604 -0.929081 -0.805606 -0.884604 -0.835535 -0.897521 -0.884604 -0.929081 -0.897521 -0.923277 -0.695953 -0.806988 -0.825661 -0.904227 -0.806988 -0.888085 -0.904227 -0.957636 -0.825661 -0.904227 -0.911891 -0.958878 -0.904227 -0.957636 -0.958878 -0.982143 0.918167 0.97062 0.963639 0.97994 0.97062 0.98846 0.97994 0.970444 0.963639 0.97994 0.945149 0.96232 0.954545 0.945149 0.91157 0.87449 0.91157 0.87449 0.682838 0.837322 -0.896921 -0.93657 -0.888376 -0.963473 -0.93657 -0.979492 -0.963473 -0.983017 -0.555145 -0.26658 0 0 0.877103 0.93599 0.947592 0.961709 0.93599 0.950913 0.961709 0.941488 0.947592 0.961709 0.983837 0.96535 0.961709 0.941488 0.96535 0.912162 -0.633429 -0.693926 -0.929081 -0.909606 -0.693926 -0.614146 -0.909606 -0.83493 -0.929081 -0.909606 -0.923277 -0.901965 -0.909606 -0.83493 -0.901965 -0.828967 -0.657383 -0.749078 -0.796615 -0.880984 -0.749078 -0.835535 -0.880984 -0.93988 -0.796615 -0.880984 -0.888085 -0.947987 -0.880984 -0.93988 -0.947987 -0.980756 0.920634 0.974482 0.971759 0.991013 0.974482 0.998548 0.991013 0.977362 0.971759 0.991013 0.98846 0.972873 0.991013 0.977362 0.972873 0.919056 -0.19509 -0.0980171 -0.0970068 0.00291459 -0.0980171 6.12323e-17 0.00291459 0.103689 -0.0970068 0.00291459 -0.00443534 0.0905611 0.00291459 0.103689 0.0905611 0.183153 6.12323e-17 0.0980171 0.103689 0.204443 0.0980171 0.19509 0.204443 0.304364 0.103689 0.204443 0.183153 0.271891 0.204443 0.304364 0.271891 0.355995 0.19509 0.290285 0.304364 0.402313 0.290285 0.382683 0.402313 0.496391 0.304364 0.402313 0.355995 0.433657 0.402313 0.496391 0.433657 0.503832 -0.493849 -0.368946 -0.626532 -0.297042 -0.626532 -0.297042 -0.345011 -0.328216 -0.297042 0 -0.328216 0 0.6633 0.59533 0.559144 0.494887 0.59533 0.534635 0.494887 0.441012 0.559144 0.494887 0.481849 0.425389 0.494887 0.441012 0.425389 0.350656 -0.286218 -0.209912 -0.204819 -0.126611 -0.209912 -0.134411 -0.126611 -0.0503318 -0.204819 -0.126611 -0.12101 -0.0438764 -0.126611 -0.0503318 -0.0438764 0.031846 -0.268733 -0.193843 -0.194369 -0.119609 -0.193843 -0.12101 -0.119609 -0.0367575 -0.194369 -0.119609 -0.096371 -0.0346244 -0.119609 -0.0367575 -0.0346244 0.0379013 0.318959 0.271055 0.115367 0.06284 0.271055 0.268391 0.06284 0.0975527 0.115367 0.06284 0 0 0.06284 0.0975527 0 0 0.268391 0.217895 0.0975527 0.131299 0.217895 0.157911 0.131299 0.112114 0.0975527 0.131299 0 0 0.131299 0.112114 0 0 0.201502 0.123766 0.124081 0.0483732 0.123766 0.0441392 0.0483732 -0.0154164 0.124081 0.0483732 0.0658444 0.00962046 0.0483732 -0.0154164 0.00962046 -0.0476926 0.157911 0.112833 0.112114 0.0452617 0.112833 0.0658444 0.0452617 -0.00939494 0.112114 0.0452617 0 0 0.0452617 -0.00939494 0 0 0.0658444 0.00962046 -0.00939494 -0.0245992 0.00962046 -0.0476926 -0.0245992 -0.0315566 -0.00939494 -0.0245992 0 0 -0.0245992 -0.0315566 0 0 -0.234167 -0.205637 -0.129723 -0.0749376 -0.205637 -0.195089 -0.0749376 -0.0448559 -0.129723 -0.0749376 0 0 -0.0749376 -0.0448559 0 0 -0.264314 -0.175857 -0.157359 -0.0781346 -0.175857 -0.096371 -0.0781346 -0.0172801 -0.157359 -0.0781346 -0.0309705 0.0593152 -0.0781346 -0.0172801 0.0593152 0.0742 -0.195089 -0.141941 -0.0448559 -0.053269 -0.141941 -0.0309705 -0.053269 0.0355147 -0.0448559 -0.053269 0 0 -0.0309705 0.0593152 0.0355147 0.100032 0.0593152 0.0742 0.100032 0.0857077 0.100032 0.0857077 0 0 -0.096371 -0.0346244 -0.0172801 0.0863171 -0.0346244 0.0379013 0.0863171 0.200305 -0.0172801 0.0863171 0.0742 0.209346 0.0863171 0.200305 0.209346 0.29626 -0.707672 -0.634854 -0.637848 -0.560089 -0.634854 -0.55589 -0.560089 -0.477422 -0.637848 -0.560089 -0.563038 -0.480576 -0.560089 -0.477422 -0.480576 -0.394055 -0.707107 -0.634393 -0.635524 -0.556833 -0.634393 -0.55557 -0.556833 -0.472713 -0.635524 -0.556833 -0.55589 -0.471714 -0.556833 -0.472713 -0.471714 -0.383134 -0.55557 -0.471397 -0.472713 -0.383913 -0.471397 -0.382683 -0.383913 -0.291185 -0.472713 -0.383913 -0.383134 -0.29103 -0.383913 -0.291185 -0.29103 -0.196453 -0.55589 -0.471714 -0.477422 -0.390722 -0.471714 -0.383134 -0.390722 -0.300875 -0.477422 -0.390722 -0.394055 -0.304327 -0.390722 -0.300875 -0.304327 -0.212637 -0.383134 -0.29103 -0.300875 -0.208875 -0.29103 -0.196453 -0.208875 -0.11563 -0.300875 -0.208875 -0.212637 -0.120274 -0.208875 -0.11563 -0.120274 -0.028589 -0.382683 -0.290285 -0.291185 -0.195295 -0.290285 -0.19509 -0.195295 -0.0970068 -0.291185 -0.195295 -0.196453 -0.100526 -0.195295 -0.0970068 -0.100526 -0.00443534 -0.196453 -0.100526 -0.11563 -0.0220118 -0.100526 -0.00443534 -0.0220118 0.071071 -0.11563 -0.0220118 -0.028589 0.0609238 -0.0220118 0.071071 0.0609238 0.146714 -0.00443534 0.0905611 0.071071 0.162706 0.0905611 0.183153 0.162706 0.251959 0.071071 0.162706 0.146714 0.227181 0.162706 0.251959 0.227181 0.300685 0.183153 0.271891 0.251959 0.337468 0.271891 0.355995 0.337468 0.419515 0.251959 0.337468 0.300685 0.364919 0.337468 0.419515 0.364919 0.421954 0.355995 0.433657 0.419515 0.493751 0.433657 0.503832 0.493751 0.560187 0.419515 0.493751 0.421954 0.463259 0.493751 0.560187 0.463259 0.496729 -0.394055 -0.304327 -0.312371 -0.222895 -0.304327 -0.212637 -0.222895 -0.132866 -0.312371 -0.222895 -0.225176 -0.134894 -0.222895 -0.132866 -0.134894 -0.045406 -0.212637 -0.120274 -0.132866 -0.0433491 -0.120274 -0.028589 -0.0433491 0.0444278 -0.132866 -0.0433491 -0.045406 0.0416781 -0.0433491 0.0444278 0.0416781 0.124587 -0.225176 -0.134894 -0.141516 -0.0526435 -0.134894 -0.045406 -0.0526435 0.0354204 -0.141516 -0.0526435 -0.0342854 0.0569175 -0.0526435 0.0354204 0.0569175 0.145682 -0.045406 0.0416781 0.0354204 0.121917 0.0416781 0.124587 0.121917 0.206252 0.0354204 0.121917 0.145682 0.231236 0.121917 0.206252 0.231236 0.31288 -0.028589 0.0609238 0.0444278 0.129213 0.0609238 0.146714 0.129213 0.209763 0.0444278 0.129213 0.124587 0.201374 0.129213 0.209763 0.201374 0.269862 0.146714 0.227181 0.209763 0.284793 0.227181 0.300685 0.284793 0.35298 0.209763 0.284793 0.269862 0.327788 0.284793 0.35298 0.327788 0.373219 0.124587 0.201374 0.206252 0.287762 0.201374 0.269862 0.287762 0.365617 0.206252 0.287762 0.31288 0.390237 0.287762 0.365617 0.390237 0.463583 0.269862 0.327788 0.365617 0.438439 0.327788 0.373219 0.438439 0.504557 0.365617 0.438439 0.463583 0.533348 0.438439 0.504557 0.533348 0.601525 0.382683 0.290291 0.290285 0.195111 0.290291 0.195087 0.195111 0.0980296 0.290285 0.195111 0.19509 0.0980392 0.195111 0.0980296 0.0980392 3.47161e-05 0.195087 0.0979855 0.0980296 1.96996e-06 0.0979855 -7.30598e-05 1.96996e-06 -0.0980258 0.0980296 1.96996e-06 3.47161e-05 -0.0979905 1.96996e-06 -0.0980258 -0.0979905 -0.195088 0.19509 0.0980392 0.0980171 2.55491e-05 0.0980392 3.47161e-05 2.55491e-05 -0.0979889 0.0980171 2.55491e-05 -1.83697e-16 -0.0980169 2.55491e-05 -0.0979889 -0.0980169 -0.195097 3.47161e-05 -0.0979905 -0.0979889 -0.195061 -0.0979905 -0.195088 -0.195061 -0.290255 -0.0979889 -0.195061 -0.195097 -0.290303 -0.195061 -0.290255 -0.290303 -0.382718 0.721575 0.650695 0.660868 0.590184 0.650695 0.579507 0.590184 0.514396 0.660868 0.590184 0.594695 0.519963 0.590184 0.514396 0.519963 0.444072 0.692283 0.619165 0.638286 0.561467 0.619165 0.539963 0.561467 0.482255 0.638286 0.561467 0.579507 0.503884 0.561467 0.482255 0.503884 0.423147 0.539963 0.456985 0.482255 0.399498 0.456985 0.366973 0.399498 0.31544 0.482255 0.399498 0.423147 0.341834 0.399498 0.31544 0.341834 0.262202 0.579507 0.503884 0.514396 0.436071 0.503884 0.423147 0.436071 0.358961 0.514396 0.436071 0.444072 0.367576 0.436071 0.358961 0.367576 0.290754 0.423147 0.341834 0.358961 0.282172 0.341834 0.262202 0.282172 0.206321 0.358961 0.282172 0.290754 0.216785 0.282172 0.206321 0.216785 0.148677 0.366973 0.275096 0.31544 0.23098 0.275096 0.185593 0.23098 0.146146 0.31544 0.23098 0.262202 0.184795 0.23098 0.146146 0.184795 0.111747 0.185593 0.0945371 0.146146 0.0657268 0.0945371 0 0.0657268 0 0.146146 0.0657268 0.111747 0.0445041 0.0657268 0 0.0445041 0 0.262202 0.184795 0.206321 0.135205 0.184795 0.111747 0.135205 0.0717175 0.206321 0.135205 0.148677 0.0870477 0.135205 0.0717175 0.0870477 0.0338441 0.111747 0.0445041 0.0717175 0.0181497 0.0445041 0 0.0181497 0 0.0717175 0.0181497 0.0338441 -0.0065657 0.0181497 0 -0.0065657 0 0.73263 0.669718 0.668001 0.595339 0.669718 0.596828 0.595339 0.52023 0.668001 0.595339 0.592292 0.515796 0.595339 0.52023 0.515796 0.439179 0.731776 0.66651 0.669417 0.598149 0.66651 0.594695 0.598149 0.523399 0.669417 0.598149 0.596828 0.522074 0.598149 0.523399 0.522074 0.447082 0.594695 0.519963 0.523399 0.447315 0.519963 0.444072 0.447315 0.369863 0.523399 0.447315 0.447082 0.36962 0.447315 0.369863 0.36962 0.292311 0.596828 0.522074 0.52023 0.444041 0.522074 0.447082 0.444041 0.364835 0.52023 0.444041 0.439179 0.359389 0.444041 0.364835 0.359389 0.280076 0.447082 0.36962 0.364835 0.286757 0.36962 0.292311 0.286757 0.211773 0.364835 0.286757 0.280076 0.20285 0.286757 0.211773 0.20285 0.128252 0.444072 0.367576 0.369863 0.293318 0.367576 0.290754 0.293318 0.220168 0.369863 0.293318 0.292311 0.217646 0.293318 0.220168 0.217646 0.147009 0.290754 0.216785 0.220168 0.151492 0.216785 0.148677 0.151492 0.0886993 0.220168 0.151492 0.147009 0.0828522 0.151492 0.0886993 0.0828522 0.0277971 0.292311 0.217646 0.211773 0.139934 0.217646 0.147009 0.139934 0.0735091 0.211773 0.139934 0.128252 0.0594312 0.139934 0.0735091 0.0594312 -0.00135778 0.147009 0.0828522 0.0735091 0.0152101 0.0828522 0.0277971 0.0152101 -0.0330793 0.0735091 0.0152101 -0.00135778 -0.05278 0.0152101 -0.0330793 -0.05278 -0.0936909 0.148677 0.0870477 0.0886993 0.0351058 0.0870477 0.0338441 0.0351058 -0.00568396 0.0886993 0.0351058 0.0277971 -0.0163548 0.0351058 -0.00568396 -0.0163548 -0.0460638 0.0338441 -0.0065657 -0.00568396 -0.0309163 -0.0065657 0 -0.0309163 0 -0.00568396 -0.0309163 -0.0460638 -0.0565751 -0.0309163 0 -0.0565751 0 0.0277971 -0.0163548 -0.0330793 -0.0681744 -0.0163548 -0.0460638 -0.0681744 -0.0847821 -0.0330793 -0.0681744 -0.0936909 -0.119064 -0.0681744 -0.0847821 -0.119064 -0.122695 0.731085 0.667262 0.664023 0.590056 0.667262 0.592292 0.590056 0.513353 0.664023 0.590056 0.58415 0.506993 0.590056 0.513353 0.506993 0.428464 0.592292 0.515796 0.513353 0.434764 0.515796 0.439179 0.434764 0.35224 0.513353 0.434764 0.428464 0.345786 0.434764 0.35224 0.345786 0.262876 0.428464 0.345786 0.33667 0.252181 0.345786 0.262876 0.252181 0.168824 0.33667 0.252181 0.2442 0.15794 0.252181 0.168824 0.15794 0.0720998 0.439179 0.359389 0.35224 0.270721 0.359389 0.280076 0.270721 0.191847 0.35224 0.270721 0.262876 0.18095 0.270721 0.191847 0.18095 0.1006 0.280076 0.20285 0.191847 0.115391 0.20285 0.128252 0.115391 0.0438136 0.191847 0.115391 0.1006 0.0252967 0.115391 0.0438136 0.0252967 -0.042945 0.262876 0.18095 0.168824 0.0864373 0.18095 0.1006 0.0864373 0.00761035 0.168824 0.0864373 0.0720998 -0.0104194 0.0864373 0.00761035 -0.0104194 -0.0882598 0.1006 0.0252967 0.00761035 -0.0658977 0.0252967 -0.042945 -0.0658977 -0.132133 0.00761035 -0.0658977 -0.0882598 -0.160301 -0.0658977 -0.132133 -0.160301 -0.223975 0.128252 0.0594312 0.0438136 -0.0207916 0.0594312 -0.00135778 -0.0207916 -0.0768927 0.0438136 -0.0207916 -0.042945 -0.102566 -0.0207916 -0.0768927 -0.102566 -0.152436 -0.00135778 -0.05278 -0.0768927 -0.121254 -0.05278 -0.0936909 -0.121254 -0.154956 -0.0768927 -0.121254 -0.152436 -0.18878 -0.121254 -0.154956 -0.18878 -0.217088 -0.042945 -0.102566 -0.132133 -0.186863 -0.102566 -0.152436 -0.186863 -0.231378 -0.132133 -0.186863 -0.223975 -0.274509 -0.186863 -0.231378 -0.274509 -0.318134 -0.152436 -0.18878 -0.231378 -0.259909 -0.18878 -0.217088 -0.259909 -0.277163 -0.231378 -0.259909 -0.318134 -0.352872 -0.259909 -0.277163 -0.352872 -0.327732 0.721425 0.656571 0.652979 0.576041 0.656571 0.582162 0.576041 0.496462 0.652979 0.576041 0.573555 0.493385 0.576041 0.496462 0.493385 0.41016 0.582162 0.50183 0.496462 0.415581 0.50183 0.417637 0.415581 0.330283 0.496462 0.415581 0.41016 0.322612 0.415581 0.330283 0.322612 0.234632 0.573555 0.493385 0.489887 0.407043 0.493385 0.41016 0.407043 0.320133 0.489887 0.407043 0.405658 0.317713 0.407043 0.320133 0.317713 0.230097 0.41016 0.322612 0.320133 0.232178 0.322612 0.234632 0.232178 0.14396 0.320133 0.232178 0.230097 0.143002 0.232178 0.14396 0.143002 0.0568085 0.417637 0.330661 0.330283 0.241872 0.330661 0.2442 0.241872 0.15229 0.330283 0.241872 0.234632 0.147423 0.241872 0.15229 0.147423 0.0598356 0.2442 0.15794 0.15229 0.0636692 0.15794 0.0720998 0.0636692 -0.0218009 0.15229 0.0636692 0.0598356 -0.0272997 0.0636692 -0.0218009 -0.0272997 -0.111975 0.234632 0.147423 0.14396 0.0560118 0.147423 0.0598356 0.0560118 -0.0289915 0.14396 0.0560118 0.0568085 -0.0262886 0.0560118 -0.0289915 -0.0262886 -0.105057 0.0598356 -0.0272997 -0.0289915 -0.109899 -0.0272997 -0.111975 -0.109899 -0.186965 -0.0289915 -0.109899 -0.105057 -0.17828 -0.109899 -0.186965 -0.17828 -0.244302 0.405658 0.317713 0.317727 0.226475 0.317713 0.230097 0.226475 0.133013 0.3