# vtk DataFile Version 3.0
#This file was generated by the deal.II library on 2020/5/26 at 20:15:12
ASCII
DATASET UNSTRUCTURED_GRID

POINTS 7108 double
-0.25 -0.875 0
-0.125 -0.875 0
-0.25 -0.75 0
-0.125 -0.75 0
-0.375 -0.75 0
-0.25 -0.75 0
-0.375 -0.625 0
-0.25 -0.625 0
-0.5 -0.625 0
-0.375 -0.625 0
-0.5 -0.5 0
-0.375 -0.5 0
0.5 -0.625 0
0.625 -0.625 0
0.5 -0.5 0
0.625 -0.5 0
-0.625 -0.5 0
-0.5 -0.5 0
-0.625 -0.375 0
-0.5 -0.375 0
-0.75 -0.375 0
-0.625 -0.375 0
-0.75 -0.25 0
-0.625 -0.25 0
0.25 -0.375 0
0.375 -0.375 0
0.25 -0.25 0
0.375 -0.25 0
-0.875 -0.25 0
-0.75 -0.25 0
-0.875 -0.125 0
-0.75 -0.125 0
0.125 -0.25 0
0.25 -0.25 0
0.125 -0.125 0
0.25 -0.125 0
-1 -0.125 0
-0.875 -0.125 0
-1 0 0
-0.875 0 0
0 -0.125 0
0.125 -0.125 0
0 0 0
0.125 0 0
-0.125 0 0
0 0 0
-0.125 0.125 0
0 0.125 0
-0.25 0.125 0
-0.125 0.125 0
-0.25 0.25 0
-0.125 0.25 0
-0.375 0.25 0
-0.25 0.25 0
-0.375 0.375 0
-0.25 0.375 0
0.625 0.25 0
0.75 0.25 0
0.625 0.375 0
0.75 0.375 0
-0.5 0.375 0
-0.375 0.375 0
-0.5 0.5 0
-0.375 0.5 0
0.375 0.375 0
0.5 0.375 0
0.375 0.5 0
0.5 0.5 0
-0.625 0.5 0
-0.5 0.5 0
-0.625 0.625 0
-0.5 0.625 0
0.125 -1 0
0.1875 -1 0
0.125 -0.9375 0
0.1875 -0.9375 0
0.1875 -1 0
0.25 -1 0
0.1875 -0.9375 0
0.25 -0.9375 0
0.125 -0.9375 0
0.1875 -0.9375 0
0.125 -0.875 0
0.1875 -0.875 0
-1 -0.75 0
-0.9375 -0.75 0
-1 -0.6875 0
-0.9375 -0.6875 0
-0.9375 -0.75 0
-0.875 -0.75 0
-0.9375 -0.6875 0
-0.875 -0.6875 0
-1 -0.6875 0
-0.9375 -0.6875 0
-1 -0.625 0
-0.9375 -0.625 0
-0.9375 -0.6875 0
-0.875 -0.6875 0
-0.9375 -0.625 0
-0.875 -0.625 0
-0.875 -0.75 0
-0.8125 -0.75 0
-0.875 -0.6875 0
-0.8125 -0.6875 0
-0.8125 -0.75 0
-0.75 -0.75 0
-0.8125 -0.6875 0
-0.75 -0.6875 0
-0.875 -0.6875 0
-0.8125 -0.6875 0
-0.875 -0.625 0
-0.8125 -0.625 0
-0.8125 -0.6875 0
-0.75 -0.6875 0
-0.8125 -0.625 0
-0.75 -0.625 0
0.625 -0.5 0
0.6875 -0.5 0
0.625 -0.4375 0
0.6875 -0.4375 0
0.6875 -0.5 0
0.75 -0.5 0
0.6875 -0.4375 0
0.75 -0.4375 0
0.625 -0.4375 0
0.6875 -0.4375 0
0.625 -0.375 0
0.6875 -0.375 0
0.5 -0.375 0
0.5625 -0.375 0
0.5 -0.3125 0
0.5625 -0.3125 0
0.5625 -0.375 0
0.625 -0.375 0
0.5625 -0.3125 0
0.625 -0.3125 0
0.5 -0.3125 0
0.5625 -0.3125 0
0.5 -0.25 0
0.5625 -0.25 0
0.9375 -0.3125 0
1 -0.3125 0
0.9375 -0.25 0
1 -0.25 0
0.5 -0.1875 0
0.5625 -0.1875 0
0.5 -0.125 0
0.5625 -0.125 0
-0.625 0 0
-0.5625 0 0
-0.625 0.0625 0
-0.5625 0.0625 0
-0.5625 0 0
-0.5 0 0
-0.5625 0.0625 0
-0.5 0.0625 0
-0.625 0.0625 0
-0.5625 0.0625 0
-0.625 0.125 0
-0.5625 0.125 0
-0.5625 0.0625 0
-0.5 0.0625 0
-0.5625 0.125 0
-0.5 0.125 0
0.25 0 0
0.3125 0 0
0.25 0.0625 0
0.3125 0.0625 0
0.3125 0 0
0.375 0 0
0.3125 0.0625 0
0.375 0.0625 0
0.25 0.0625 0
0.3125 0.0625 0
0.25 0.125 0
0.3125 0.125 0
0.3125 0.0625 0
0.375 0.0625 0
0.3125 0.125 0
0.375 0.125 0
-0.75 0.125 0
-0.6875 0.125 0
-0.75 0.1875 0
-0.6875 0.1875 0
-0.5625 0.125 0
-0.5 0.125 0
-0.5625 0.1875 0
-0.5 0.1875 0
-0.625 0.1875 0
-0.5625 0.1875 0
-0.625 0.25 0
-0.5625 0.25 0
-0.5625 0.1875 0
-0.5 0.1875 0
-0.5625 0.25 0
-0.5 0.25 0
0.125 0.125 0
0.1875 0.125 0
0.125 0.1875 0
0.1875 0.1875 0
0.1875 0.125 0
0.25 0.125 0
0.1875 0.1875 0
0.25 0.1875 0
0.125 0.1875 0
0.1875 0.1875 0
0.125 0.25 0
0.1875 0.25 0
0.875 0.125 0
0.9375 0.125 0
0.875 0.1875 0
0.9375 0.1875 0
0.875 0.1875 0
0.9375 0.1875 0
0.875 0.25 0
0.9375 0.25 0
0.9375 0.1875 0
1 0.1875 0
0.9375 0.25 0
1 0.25 0
-1 0.25 0
-0.9375 0.25 0
-1 0.3125 0
-0.9375 0.3125 0
-0.6875 0.3125 0
-0.625 0.3125 0
-0.6875 0.375 0
-0.625 0.375 0
0.0625 0.25 0
0.125 0.25 0
0.0625 0.3125 0
0.125 0.3125 0
0 0.3125 0
0.0625 0.3125 0
0 0.375 0
0.0625 0.375 0
0.1875 0.3125 0
0.25 0.3125 0
0.1875 0.375 0
0.25 0.375 0
0.875 0.25 0
0.9375 0.25 0
0.875 0.3125 0
0.9375 0.3125 0
-0.875 0.375 0
-0.8125 0.375 0
-0.875 0.4375 0
-0.8125 0.4375 0
-0.8125 0.375 0
-0.75 0.375 0
-0.8125 0.4375 0
-0.75 0.4375 0
-0.875 0.4375 0
-0.8125 0.4375 0
-0.875 0.5 0
-0.8125 0.5 0
-0.8125 0.4375 0
-0.75 0.4375 0
-0.8125 0.5 0
-0.75 0.5 0
-0.75 0.375 0
-0.6875 0.375 0
-0.75 0.4375 0
-0.6875 0.4375 0
-0.6875 0.375 0
-0.625 0.375 0
-0.6875 0.4375 0
-0.625 0.4375 0
-0.75 0.4375 0
-0.6875 0.4375 0
-0.75 0.5 0
-0.6875 0.5 0
-0.6875 0.4375 0
-0.625 0.4375 0
-0.6875 0.5 0
-0.625 0.5 0
-0.125 0.375 0
-0.0625 0.375 0
-0.125 0.4375 0
-0.0625 0.4375 0
-0.0625 0.375 0
0 0.375 0
-0.0625 0.4375 0
0 0.4375 0
-0.125 0.4375 0
-0.0625 0.4375 0
-0.125 0.5 0
-0.0625 0.5 0
0.0625 0.4375 0
0.125 0.4375 0
0.0625 0.5 0
0.125 0.5 0
0.75 0.375 0
0.8125 0.375 0
0.75 0.4375 0
0.8125 0.4375 0
0.8125 0.375 0
0.875 0.375 0
0.8125 0.4375 0
0.875 0.4375 0
0.75 0.4375 0
0.8125 0.4375 0
0.75 0.5 0
0.8125 0.5 0
-0.9375 0.5 0
-0.875 0.5 0
-0.9375 0.5625 0
-0.875 0.5625 0
-0.9375 0.5625 0
-0.875 0.5625 0
-0.9375 0.625 0
-0.875 0.625 0
-0.875 0.5 0
-0.8125 0.5 0
-0.875 0.5625 0
-0.8125 0.5625 0
-0.8125 0.5 0
-0.75 0.5 0
-0.8125 0.5625 0
-0.75 0.5625 0
-0.8125 0.5625 0
-0.75 0.5625 0
-0.8125 0.625 0
-0.75 0.625 0
-0.75 0.5 0
-0.6875 0.5 0
-0.75 0.5625 0
-0.6875 0.5625 0
-0.6875 0.5 0
-0.625 0.5 0
-0.6875 0.5625 0
-0.625 0.5625 0
-0.75 0.5625 0
-0.6875 0.5625 0
-0.75 0.625 0
-0.6875 0.625 0
-0.6875 0.5625 0
-0.625 0.5625 0
-0.6875 0.625 0
-0.625 0.625 0
-0.25 0.5 0
-0.1875 0.5 0
-0.25 0.5625 0
-0.1875 0.5625 0
0 0.5 0
0.0625 0.5 0
0 0.5625 0
0.0625 0.5625 0
0.0625 0.5 0
0.125 0.5 0
0.0625 0.5625 0
0.125 0.5625 0
0 0.5625 0
0.0625 0.5625 0
0 0.625 0
0.0625 0.625 0
0.0625 0.5625 0
0.125 0.5625 0
0.0625 0.625 0
0.125 0.625 0
0.625 0.5 0
0.6875 0.5 0
0.625 0.5625 0
0.6875 0.5625 0
0.625 0.5625 0
0.6875 0.5625 0
0.625 0.625 0
0.6875 0.625 0
-1 0.625 0
-0.9375 0.625 0
-1 0.6875 0
-0.9375 0.6875 0
-0.9375 0.625 0
-0.875 0.625 0
-0.9375 0.6875 0
-0.875 0.6875 0
-1 0.6875 0
-0.9375 0.6875 0
-1 0.75 0
-0.9375 0.75 0
-0.9375 0.6875 0
-0.875 0.6875 0
-0.9375 0.75 0
-0.875 0.75 0
-0.875 0.625 0
-0.8125 0.625 0
-0.875 0.6875 0
-0.8125 0.6875 0
-0.8125 0.625 0
-0.75 0.625 0
-0.8125 0.6875 0
-0.75 0.6875 0
-0.875 0.6875 0
-0.8125 0.6875 0
-0.875 0.75 0
-0.8125 0.75 0
-0.8125 0.6875 0
-0.75 0.6875 0
-0.8125 0.75 0
-0.75 0.75 0
-0.5 0.625 0
-0.4375 0.625 0
-0.5 0.6875 0
-0.4375 0.6875 0
-0.4375 0.625 0
-0.375 0.625 0
-0.4375 0.6875 0
-0.375 0.6875 0
-0.4375 0.6875 0
-0.375 0.6875 0
-0.4375 0.75 0
-0.375 0.75 0
-0.375 0.625 0
-0.3125 0.625 0
-0.375 0.6875 0
-0.3125 0.6875 0
-0.375 0.6875 0
-0.3125 0.6875 0
-0.375 0.75 0
-0.3125 0.75 0
-0.0625 0.6875 0
0 0.6875 0
-0.0625 0.75 0
0 0.75 0
0.5 0.625 0
0.5625 0.625 0
0.5 0.6875 0
0.5625 0.6875 0
0.5625 0.625 0
0.625 0.625 0
0.5625 0.6875 0
0.625 0.6875 0
0.5625 0.6875 0
0.625 0.6875 0
0.5625 0.75 0
0.625 0.75 0
0.625 0.6875 0
0.6875 0.6875 0
0.625 0.75 0
0.6875 0.75 0
-1 0.75 0
-0.9375 0.75 0
-1 0.8125 0
-0.9375 0.8125 0
-0.9375 0.75 0
-0.875 0.75 0
-0.9375 0.8125 0
-0.875 0.8125 0
-1 0.8125 0
-0.9375 0.8125 0
-1 0.875 0
-0.9375 0.875 0
-0.9375 0.8125 0
-0.875 0.8125 0
-0.9375 0.875 0
-0.875 0.875 0
-0.625 0.75 0
-0.5625 0.75 0
-0.625 0.8125 0
-0.5625 0.8125 0
-0.5 0.75 0
-0.4375 0.75 0
-0.5 0.8125 0
-0.4375 0.8125 0
-0.4375 0.8125 0
-0.375 0.8125 0
-0.4375 0.875 0
-0.375 0.875 0
-0.375 0.8125 0
-0.3125 0.8125 0
-0.375 0.875 0
-0.3125 0.875 0
0.5 0.75 0
0.5625 0.75 0
0.5 0.8125 0
0.5625 0.8125 0
0.5625 0.75 0
0.625 0.75 0
0.5625 0.8125 0
0.625 0.8125 0
0.5 0.8125 0
0.5625 0.8125 0
0.5 0.875 0
0.5625 0.875 0
-1 -1 0
-0.9375 -1 0
-1 -0.9375 0
-0.9375 -0.9375 0
-0.9375 -1 0
-0.875 -1 0
-0.9375 -0.9375 0
-0.875 -0.9375 0
-1 -0.9375 0
-0.9375 -0.9375 0
-1 -0.875 0
-0.9375 -0.875 0
-0.9375 -0.9375 0
-0.875 -0.9375 0
-0.9375 -0.875 0
-0.875 -0.875 0
-0.875 -1 0
-0.8125 -1 0
-0.875 -0.9375 0
-0.8125 -0.9375 0
-0.8125 -1 0
-0.75 -1 0
-0.8125 -0.9375 0
-0.75 -0.9375 0
-0.875 -0.9375 0
-0.8125 -0.9375 0
-0.875 -0.875 0
-0.8125 -0.875 0
-0.8125 -0.9375 0
-0.75 -0.9375 0
-0.8125 -0.875 0
-0.75 -0.875 0
-0.75 -1 0
-0.6875 -1 0
-0.75 -0.9375 0
-0.6875 -0.9375 0
-0.6875 -1 0
-0.625 -1 0
-0.6875 -0.9375 0
-0.625 -0.9375 0
-0.75 -0.9375 0
-0.6875 -0.9375 0
-0.75 -0.875 0
-0.6875 -0.875 0
-0.6875 -0.9375 0
-0.625 -0.9375 0
-0.6875 -0.875 0
-0.625 -0.875 0
-0.625 -1 0
-0.5625 -1 0
-0.625 -0.9375 0
-0.5625 -0.9375 0
-0.5625 -1 0
-0.5 -1 0
-0.5625 -0.9375 0
-0.5 -0.9375 0
-0.625 -0.9375 0
-0.5625 -0.9375 0
-0.625 -0.875 0
-0.5625 -0.875 0
-0.5625 -0.9375 0
-0.5 -0.9375 0
-0.5625 -0.875 0
-0.5 -0.875 0
-0.5 -1 0
-0.4375 -1 0
-0.5 -0.9375 0
-0.4375 -0.9375 0
-0.4375 -1 0
-0.375 -1 0
-0.4375 -0.9375 0
-0.375 -0.9375 0
-0.5 -0.9375 0
-0.4375 -0.9375 0
-0.5 -0.875 0
-0.4375 -0.875 0
-0.4375 -0.9375 0
-0.375 -0.9375 0
-0.4375 -0.875 0
-0.375 -0.875 0
-0.375 -1 0
-0.3125 -1 0
-0.375 -0.9375 0
-0.3125 -0.9375 0
-0.3125 -1 0
-0.25 -1 0
-0.3125 -0.9375 0
-0.25 -0.9375 0
-0.375 -0.9375 0
-0.3125 -0.9375 0
-0.375 -0.875 0
-0.3125 -0.875 0
-0.3125 -0.9375 0
-0.25 -0.9375 0
-0.3125 -0.875 0
-0.25 -0.875 0
-0.125 -1 0
-0.0625 -1 0
-0.125 -0.9375 0
-0.0625 -0.9375 0
-0.0625 -1 0
0 -1 0
-0.0625 -0.9375 0
0 -0.9375 0
-0.125 -0.9375 0
-0.0625 -0.9375 0
-0.125 -0.875 0
-0.0625 -0.875 0
-0.0625 -0.9375 0
0 -0.9375 0
-0.0625 -0.875 0
0 -0.875 0
0 -1 0
0.0625 -1 0
0 -0.9375 0
0.0625 -0.9375 0
0.0625 -1 0
0.125 -1 0
0.0625 -0.9375 0
0.125 -0.9375 0
0 -0.9375 0
0.0625 -0.9375 0
0 -0.875 0
0.0625 -0.875 0
0.0625 -0.9375 0
0.125 -0.9375 0
0.0625 -0.875 0
0.125 -0.875 0
0.8125 -1 0
0.875 -1 0
0.8125 -0.9375 0
0.875 -0.9375 0
0.75 -0.9375 0
0.8125 -0.9375 0
0.75 -0.875 0
0.8125 -0.875 0
0.8125 -0.9375 0
0.875 -0.9375 0
0.8125 -0.875 0
0.875 -0.875 0
0.875 -1 0
0.9375 -1 0
0.875 -0.9375 0
0.9375 -0.9375 0
0.9375 -1 0
1 -1 0
0.9375 -0.9375 0
1 -0.9375 0
0.875 -0.9375 0
0.9375 -0.9375 0
0.875 -0.875 0
0.9375 -0.875 0
0.9375 -0.9375 0
1 -0.9375 0
0.9375 -0.875 0
1 -0.875 0
-1 -0.875 0
-0.9375 -0.875 0
-1 -0.8125 0
-0.9375 -0.8125 0
-0.9375 -0.875 0
-0.875 -0.875 0
-0.9375 -0.8125 0
-0.875 -0.8125 0
-1 -0.8125 0
-0.9375 -0.8125 0
-1 -0.75 0
-0.9375 -0.75 0
-0.9375 -0.8125 0
-0.875 -0.8125 0
-0.9375 -0.75 0
-0.875 -0.75 0
-0.875 -0.875 0
-0.8125 -0.875 0
-0.875 -0.8125 0
-0.8125 -0.8125 0
-0.8125 -0.875 0
-0.75 -0.875 0
-0.8125 -0.8125 0
-0.75 -0.8125 0
-0.875 -0.8125 0
[...]
POINT_DATA 7108
SCALARS solution double 1
LOOKUP_TABLE default
-0.922268 -1.00682 -1.00452 -0.960467 -0.927376 -1.00452 -1.08728 -1.02667 -0.990114 -1.08728 -1.02088 -0.954597 0.82187 0.858726 0.972457 0.909283 -0.935125 -1.02088 -0.99433 -0.917387 -0.920381 -0.99433 -0.991221 -0.913713 0.94251 1.0159 1.02704 0.954704 -0.923056 -0.991221 -1.00111 -0.922829 0.941948 1.02704 1.0363 0.969073 -0.92388 -1.00111 -1 -0.922653 0.952816 1.0363 1.02854 0.970542 0.942831 1.02854 1.05173 0.997731 0.951673 1.05173 1.01276 0.9418 0.933789 1.01276 1.03933 0.980765 -0.507868 -0.426617 -0.813251 -0.764886 0.94256 1.03933 0.990413 0.930799 -0.543366 -0.729802 -0.860415 -0.938849 0.85243 0.990413 0.908194 0.903252 -0.92388 -0.83147 -0.830398 -0.713135 -0.83147 -0.707107 -0.713135 -0.557825 -0.830398 -0.713135 -0.724316 -0.574115 0.707107 0.556483 0.55557 0.380606 0.556483 0.380348 0.380606 0.190621 0.55557 0.380606 0.382683 0.173199 0.380606 0.190621 0.173199 -0.0247988 0.380348 0.193066 0.190621 -0.00344692 0.193066 -0.00064407 -0.00344692 -0.200335 0.190621 -0.00344692 -0.0247988 -0.221215 -0.00344692 -0.200335 -0.221215 -0.418163 0.909283 0.795892 0.844053 0.726975 0.795892 0.677405 0.726975 0.579655 0.844053 0.726975 0.740746 0.595641 0.946812 0.861956 0.859552 0.735792 0.861956 0.740746 0.735792 0.601364 0.859552 0.735792 0.750769 0.611593 -0.0310672 0 0.0975822 0 0.603842 0.450335 0.484665 0.297168 -0.380998 -0.193235 -0.191287 0.00230066 -0.193235 -0.00309223 0.00230066 0.181955 -0.191287 0.00230066 0.0253606 0.211373 0.00230066 0.181955 0.211373 0.371667 0.742177 0.604368 0.669281 0.490399 0.604368 0.433942 0.490399 0.312168 0.669281 0.490399 0.475001 0.318296 0.490399 0.312168 0.318296 0.138212 -0.369916 -0.183902 -0.186836 0.00867505 0.211373 0.371667 0.37279 0.513574 0.199621 0.37279 0.385982 0.504541 0.37279 0.513574 0.504541 0.660946 0.769782 0.649477 0.65573 0.499977 0.649477 0.475001 0.499977 0.318635 0.65573 0.499977 0.411819 0.226045 -0.505169 -0.520207 -0.497843 -0.283344 -0.497843 -0.283344 -0.354445 -0.253177 -0.283344 0 -0.253177 0 -0.707107 -0.55371 -0.55557 -0.379618 0.383382 0.510573 0.547119 0.62027 0.586856 0.411819 0.47244 0.307127 0.622213 0.47244 0.445259 0.266826 0.113395 0.0425469 -0.0486111 -0.1485 -0.354445 -0.253177 -0.505479 -0.337745 0.0478543 0.232649 0.261969 0.435266 0.232649 0.406304 0.435266 0.579941 0.261969 0.435266 0.45195 0.621778 0.435266 0.579941 0.621778 0.745314 0.406304 0.547119 0.579941 0.664693 0.547119 0.62027 0.664693 0.730765 0.579941 0.664693 0.745314 0.78296 0.664693 0.730765 0.78296 0.85243 0.754933 0.62045 0.593139 0.422681 0.62045 0.445259 0.422681 0.240472 0.593139 0.422681 0.399499 0.215071 0.0230804 -0.100031 -0.122081 -0.207293 -0.764886 -0.657584 -0.756542 -0.617745 -0.657584 -0.506374 -0.617745 -0.445807 -0.756542 -0.617745 -0.678969 -0.521355 0.280565 0.45195 0.371295 0.532045 0.371295 0.532045 0.52008 0.648584 0.45195 0.621778 0.532045 0.723156 0.621778 0.745314 0.723156 0.792019 0.723156 0.792019 0.713236 0.631332 0.745314 0.78296 0.792019 0.839673 0.78296 0.85243 0.839673 1.01279 0.792019 0.839673 0.631332 0.700064 0.839673 1.01279 0.700064 0.908194 0.711179 0.577236 0.562418 0.380575 0.0197758 -0.122081 -0.194865 -0.310078 -0.122081 -0.207293 -0.310078 -0.338523 -0.194865 -0.310078 -0.368154 -0.384985 -0.310078 -0.338523 -0.384985 -0.406035 -0.927418 -0.782685 -0.821709 -0.721501 -0.821709 -0.721501 -0.739228 -0.59695 0.382683 0.52008 0.55557 0.687434 0.52008 0.648584 0.687434 0.730287 0.55557 0.687434 0.707107 0.770766 0.687434 0.730287 0.770766 0.741959 0.648584 0.713236 0.730287 0.69245 0.713236 0.631332 0.69245 0.629544 0.730287 0.69245 0.741959 0.631204 0.69245 0.629544 0.631204 0.549758 0.903252 0.830801 0.822344 0.673651 0.830801 0.71657 0.673651 0.535253 0.673651 0.535253 0.539194 0.374953 0.71657 0.566398 0.535253 0.395476 0.535253 0.395476 0.374953 0.18679 -0.396327 -0.475467 -0.483199 -0.477446 -0.946373 -0.869696 -0.880531 -0.73399 -0.869696 -0.739228 -0.73399 -0.59295 -0.73399 -0.59295 -0.59921 -0.454601 -0.59295 -0.461466 -0.454601 -0.295634 0.707107 0.770766 0.83147 0.803713 0.770766 0.741959 0.803713 0.685312 0.83147 0.803713 0.92388 0.801965 0.803713 0.685312 0.801965 0.52463 0.882233 0.805884 0.783824 0.638256 0.681019 0.539194 0.552625 0.360491 0.360491 0.197259 0.161742 0.0346505 0.197259 0.0402569 0.0346505 -0.140972 -0.754274 -0.59921 -0.571424 -0.421669 -0.59921 -0.454601 -0.421669 -0.295395 -0.571424 -0.421669 -0.373676 -0.25626 1 0.980785 0.980785 0.925014 0.980785 0.92388 0.925014 0.835221 0.980785 0.925014 0.92388 0.834993 0.925014 0.835221 0.834993 0.712128 0.92388 0.83147 0.835221 0.710027 0.83147 0.707107 0.710027 0.555613 0.835221 0.710027 0.712128 0.558873 0.710027 0.555613 0.558873 0.385701 0.707107 0.55557 0.555613 0.382084 0.55557 0.382683 0.382084 0.195182 0.555613 0.382084 0.385701 0.197809 0.382084 0.195182 0.197809 0.0002632 0.382683 0.19509 0.195182 -4.29272e-05 0.19509 -1.83697e-16 -4.29272e-05 -0.195361 0.195182 -4.29272e-05 0.0002632 -0.196727 -4.29272e-05 -0.195361 -0.196727 -0.384597 -1.83697e-16 -0.19509 -0.195361 -0.382842 -0.19509 -0.382683 -0.382842 -0.554274 -0.195361 -0.382842 -0.384597 -0.558677 -0.382842 -0.554274 -0.558677 -0.708033 -0.382683 -0.55557 -0.554274 -0.703555 -0.55557 -0.707107 -0.703555 -0.826781 -0.554274 -0.703555 -0.708033 -0.83043 -0.703555 -0.826781 -0.83043 -0.922268 -0.92388 -0.980785 -0.980197 -1.01073 -0.980785 -1 -1.01073 -0.986042 -0.980197 -1.01073 -1.00682 -0.991968 -1.01073 -0.986042 -0.991968 -0.929415 -1 -0.980785 -0.986042 -0.92014 -0.980785 -0.92388 -0.92014 -0.830398 -0.986042 -0.92014 -0.929415 -0.844306 -0.92014 -0.830398 -0.844306 -0.724316 0.83147 0.92388 0.132755 0.136761 0.319022 0.132755 0.299721 0.329142 0.132755 0.136761 0.329142 0.213514 0.92388 0.980785 0.136761 0.0922023 0.980785 0 0.0922023 0 0.136761 0.0922023 0.213514 0.118726 0.0922023 0 0.118726 0 0.92388 0.834993 0.83147 0.71153 0.834993 0.712128 0.71153 0.55943 0.83147 0.71153 0.707107 0.556483 0.71153 0.55943 0.556483 0.380348 0.712128 0.558873 0.55943 0.385286 0.558873 0.385701 0.385286 0.198549 0.55943 0.385286 0.380348 0.193066 0.385286 0.198549 0.193066 -0.00064407 0.385701 0.197809 0.198549 0.00327113 0.197809 0.0002632 0.00327113 -0.193157 0.198549 0.00327113 -0.00064407 -0.195524 0.00327113 -0.193157 -0.195524 -0.382456 0.0002632 -0.196727 -0.193157 -0.383016 -0.196727 -0.384597 -0.383016 -0.559506 -0.193157 -0.383016 -0.382456 -0.554861 -0.383016 -0.559506 -0.554861 -0.706275 -0.384597 -0.558677 -0.559506 -0.716275 -0.558677 -0.708033 -0.716275 -0.838656 -0.559506 -0.716275 -0.706275 -0.832342 -0.716275 -0.838656 -0.832342 -0.927376 -1.00682 -0.991968 -0.992527 -0.921239 -0.991968 -0.929415 -0.921239 -0.828771 -0.992527 -0.921239 -0.960467 -0.850741 -0.921239 -0.828771 -0.850741 -0.716655 -0.929415 -0.844306 -0.828771 -0.715547 -0.844306 -0.724316 -0.715547 -0.569263 -0.828771 -0.715547 -0.716655 -0.557293 -0.715547 -0.569263 -0.557293 -0.375413 0.416474 0.473494 0.220578 0.345669 0.238436 0.220578 0.332335 0.419659 0.220578 0.345669 0.419659 0.44235 -0.00064407 -0.195524 -0.200335 -0.388901 -0.195524 -0.382456 -0.388901 -0.561795 -0.200335 -0.388901 -0.418163 -0.600292 -0.388901 -0.561795 -0.600292 -0.760946 -0.382456 -0.554861 -0.561795 -0.714469 -0.554861 -0.706275 -0.714469 -0.839809 -0.561795 -0.714469 -0.760946 -0.892775 -0.714469 -0.839809 -0.892775 -0.990114 -1.00452 -0.962064 -1.03541 -1.03063 -0.962064 -0.960467 -1.03063 -0.928989 -1.03541 -1.03063 -1.02667 -0.901615 -1.03063 -0.928989 -0.901615 -0.771556 -0.960467 -0.850741 -0.928989 -0.821844 -0.850741 -0.716655 -0.821844 -0.716825 -0.928989 -0.821844 -0.771556 -0.648917 -0.821844 -0.716825 -0.648917 -0.456776 -0.716655 -0.557293 -0.716825 -0.560762 -0.557293 -0.375413 -0.560762 -0.375301 -0.716825 -0.560762 -0.456776 -0.259808 -0.560762 -0.375301 -0.259808 -0.0949134 -0.375413 -0.183868 -0.375301 -0.187615 -0.183868 -0.0191118 -0.187615 0.0228668 -0.375301 -0.187615 -0.0949134 0.0831317 -0.187615 0.0228668 0.0831317 0.271717 -0.0191118 0.136142 0.0228668 0.22636 0.136142 0.248637 0.22636 0.421001 0.0228668 0.22636 0.271717 0.438022 0.22636 0.421001 0.438022 0.58856 0.248637 0.320715 0.421001 0.588706 0.320715 0.332335 0.588706 0.710608 0.421001 0.588706 0.58856 0.718539 0.588706 0.710608 0.718539 0.82187 0.422433 0.334001 0.578406 0.45623 0.720285 0.578406 0.7916 0.65532 0.171476 0 0.208191 0 0.45623 0.208191 0.469218 0.305399 -0.221215 -0.418163 -0.402002 -0.575971 -0.201125 -0.402002 -0.384305 -0.559726 -0.402002 -0.575971 -0.559726 -0.714149 -0.418163 -0.600292 -0.575971 -0.728568 -0.600292 -0.760946 -0.728568 -0.853585 -0.575971 -0.728568 -0.714149 -0.841833 -0.728568 -0.853585 -0.841833 -0.935125 -0.760946 -0.892775 -0.853585 -0.944062 -0.892775 -0.990114 -0.944062 -1.01288 -0.853585 -0.944062 -0.935125 -0.969449 -0.944062 -1.01288 -0.969449 -1.02088 -1.02667 -0.901615 -0.86436 -0.722207 -0.901615 -0.771556 -0.722207 -0.602901 -0.86436 -0.722207 -0.731023 -0.612123 -0.722207 -0.602901 -0.612123 -0.423137 -0.771556 -0.648917 -0.602901 -0.42018 -0.648917 -0.456776 -0.42018 -0.23007 -0.602901 -0.42018 -0.423137 -0.221359 -0.42018 -0.23007 -0.221359 -0.0443969 -0.456776 -0.259808 -0.23007 -0.0579141 -0.23007 -0.0579141 -0.0443969 0.151164 -0.0579141 0.134612 0.151164 0.338978 -0.0949134 0.0831317 0.134612 0.332961 0.0831317 0.271717 0.332961 0.487731 0.134612 0.332961 0.338978 0.501239 0.332961 0.487731 0.501239 0.660287 0.271717 0.438022 0.487731 0.627936 0.438022 0.58856 0.627936 0.751188 0.487731 0.627936 0.660287 0.799208 0.627936 0.751188 0.799208 0.886044 0.858726 0.861062 0.894817 0.822285 0.861062 0.7916 0.822285 0.716581 0.894817 0.822285 0.909283 0.795892 0.65532 0.469218 0.579248 0.450129 0.716581 0.579248 0.677405 0.517324 0.579248 0.450129 0.517324 0.339805 0.469218 0.305399 0.450129 0.256618 -0.193813 -0.384305 -0.382923 -0.555251 -0.19509 -0.382923 -0.382683 -0.553484 -0.382923 -0.555251 -0.553484 -0.706605 -0.384305 -0.559726 -0.555251 -0.708458 -0.559726 -0.714149 -0.708458 -0.833509 -0.555251 -0.708458 -0.706605 -0.830312 -0.708458 -0.833509 -0.830312 -0.920381 -0.714149 -0.841833 -0.833509 -0.925785 -0.841833 -0.935125 -0.925785 -0.987341 -0.833509 -0.925785 -0.920381 -0.969859 -0.925785 -0.987341 -0.969859 -0.99433 -0.954597 -0.86267 -0.849376 -0.723143 -0.86267 -0.731023 -0.723143 -0.579921 -0.849376 -0.723143 -0.705213 -0.564181 -0.723143 -0.579921 -0.564181 -0.391971 -0.731023 -0.612123 -0.579921 -0.399122 -0.612123 -0.423137 -0.399122 -0.206418 -0.579921 -0.399122 -0.391971 -0.198926 -0.399122 -0.206418 -0.198926 -0.00325768 -0.423137 -0.221359 -0.206418 -0.0222541 -0.221359 -0.0443969 -0.0222541 0.185699 -0.206418 -0.0222541 -0.00325768 0.198796 -0.0222541 0.185699 0.198796 0.384381 -0.0443969 0.151164 0.185699 0.383917 0.151164 0.338978 0.383917 0.548492 0.185699 0.383917 0.384381 0.550271 0.383917 0.548492 0.550271 0.713159 0.338978 0.501239 0.548492 0.701377 0.501239 0.660287 0.701377 0.827158 0.548492 0.701377 0.713159 0.850029 0.701377 0.827158 0.850029 0.94251 0.972457 0.991035 0.983467 0.929825 0.991035 0.909283 0.929825 0.844053 0.983467 0.929825 0.946812 0.861956 0.929825 0.844053 0.861956 0.740746 -0.382683 -0.553484 -0.55557 -0.70336 -0.553484 -0.706605 -0.70336 -0.823674 -0.55557 -0.70336 -0.707107 -0.83131 -0.70336 -0.823674 -0.83131 -0.923056 -0.706605 -0.830312 -0.823674 -0.91551 -0.830312 -0.920381 -0.91551 -0.972004 -0.823674 -0.91551 -0.923056 -0.980464 -0.91551 -0.972004 -0.980464 -0.991221 -0.917387 -0.831423 -0.820621 -0.693877 -0.831423 -0.705213 -0.693877 -0.546314 -0.820621 -0.693877 -0.696652 -0.545508 -0.693877 -0.546314 -0.545508 -0.375072 -0.705213 -0.564181 -0.546314 -0.378811 -0.564181 -0.391971 -0.378811 -0.192277 -0.546314 -0.378811 -0.375072 -0.187466 -0.378811 -0.192277 -0.187466 0.0106681 -0.391971 -0.198926 -0.192277 0.00275276 -0.198926 -0.00325768 0.00275276 0.201637 -0.192277 0.00275276 0.0106681 0.212603 0.00275276 0.201637 0.212603 0.402669 -0.00325768 0.198796 0.201637 0.388881 0.198796 0.384381 0.388881 0.557386 0.201637 0.388881 0.402669 0.572131 0.388881 0.557386 0.572131 0.723072 0.384381 0.550271 0.557386 0.711518 0.550271 0.713159 0.711518 0.832633 0.557386 0.711518 0.723072 0.84884 0.711518 0.832633 0.84884 0.941948 1.0159 0.995867 1.00662 0.952798 0.995867 0.946812 0.952798 0.859552 1.00662 0.952798 0.954704 0.87396 0.952798 0.859552 0.87396 0.750769 -0.707107 -0.83131 -0.83147 -0.923291 -0.83131 -0.923056 -0.923291 -0.977666 -0.83147 -0.923291 -0.92388 -0.987805 -0.923291 -0.977666 -0.987805 -1.00111 -0.991221 -0.975035 -0.974936 -0.915011 -0.975035 -0.913713 -0.915011 -0.821621 -0.974936 -0.915011 -0.922829 -0.832097 -0.915011 -0.821621 -0.832097 -0.704569 -0.913713 -0.823081 -0.821621 -0.695551 -0.823081 -0.696652 -0.695551 -0.542969 -0.821621 -0.695551 -0.704569 -0.548791 -0.695551 -0.542969 -0.548791 -0.37505 -0.696652 -0.545508 -0.542969 -0.372923 -0.545508 -0.375072 -0.372923 -0.189979 -0.542969 -0.372923 -0.37505 -0.189875 -0.372923 -0.189979 -0.189875 0.00154496 -0.375072 -0.187466 -0.189979 0.00403145 -0.187466 0.0106681 0.00403145 0.206879 -0.189979 0.00403145 0.00154496 0.202526 0.00403145 0.206879 0.202526 0.404587 0.0106681 0.212603 0.206879 0.402422 0.212603 0.402669 0.402422 0.57349 0.206879 0.402422 0.404587 0.585283 0.402422 0.57349 0.585283 0.735799 0.402669 0.572131 0.57349 0.721115 0.572131 0.723072 0.721115 0.843157 0.57349 0.721115 0.735799 0.859865 0.721115 0.843157 0.859865 0.952816 1.02704 0.956674 1.00761 0.960024 0.956674 0.954704 0.960024 0.867452 1.00761 0.960024 0.969073 0.889003 0.960024 0.867452 0.889003 0.760605 0.954704 0.87396 0.867452 0.739394 0.87396 0.750769 0.739394 0.603842 0.867452 0.739394 0.760605 0.632137 0.0975822 0 0.0476304 0 -0.0638094 0.0476304 -0.0052404 -0.112047 0.0476304 0 -0.112047 0 -0.922829 -0.832097 -0.82993 -0.70448 -0.832097 -0.704569 -0.70448 -0.552463 -0.82993 -0.70448 -0.703864 -0.550561 -0.70448 -0.552463 -0.550561 -0.380998 -0.704569 -0.548791 -0.552463 -0.380672 -0.548791 -0.37505 -0.380672 -0.193072 -0.552463 -0.380672 -0.380998 -0.193235 -0.380672 -0.193072 -0.193235 -0.00309223 -0.37505 -0.189875 -0.193072 -0.00391704 -0.189875 0.00154496 -0.00391704 0.187606 -0.193072 -0.00391704 -0.00309223 0.178228 -0.00391704 0.187606 0.178228 0.37067 0.00154496 0.202526 0.187606 0.388376 0.202526 0.404587 0.388376 0.575897 0.187606 0.388376 0.37067 0.565887 0.388376 0.575897 0.565887 0.725865 0.404587 0.585283 0.575897 0.730516 0.585283 0.735799 0.730516 0.853958 0.575897 0.730516 0.725865 0.847493 0.730516 0.853958 0.847493 0.942831 1.0363 0.961724 1.01768 0.967022 0.961724 0.969073 0.967022 0.861465 1.01768 0.967022 0.970542 0.864257 0.967022 0.861465 0.864257 0.742177 0.969073 0.889003 0.861465 0.743069 0.889003 0.760605 0.743069 0.623781 0.861465 0.743069 0.742177 0.604368 -1 -0.992116 -0.980785 -0.920822 -0.992116 -0.922653 -0.920822 -0.828789 -0.980785 -0.920822 -0.92388 -0.827124 -0.920822 -0.828789 -0.827124 -0.701612 -0.922653 -0.829164 -0.828789 -0.706017 -0.829164 -0.703864 -0.706017 -0.551124 -0.828789 -0.706017 -0.701612 -0.545193 -0.706017 -0.551124 -0.545193 -0.369916 -0.703864 -0.550561 -0.551124 -0.376729 -0.550561 -0.380998 -0.376729 -0.191287 -0.551124 -0.376729 -0.369916 -0.183902 -0.376729 -0.191287 -0.183902 0.0253606 -0.00309223 0.178228 0.181955 0.356244 0.178228 0.37067 0.356244 0.548699 0.181955 0.356244 0.371667 0.547382 0.356244 0.548699 0.547382 0.732638 0.37067 0.565887 0.548699 0.723579 0.565887 0.725865 0.723579 0.850569 0.548699 0.723579 0.732638 0.867388 0.723579 0.850569 0.867388 0.951673 1.02854 0.965826 1.04 1.01198 0.965826 0.970542 1.01198 0.91278 1.04 1.01198 0.997731 0.902417 1.01198 0.91278 0.902417 0.769782 0.970542 0.864257 0.91278 0.793088 0.864257 0.742177 0.793088 0.669281 0.91278 0.793088 0.769782 0.649477 0.793088 0.669281 0.649477 0.475001 0.113162 0.0231941 -0.036799 -0.244409 0.0231941 -0.0337162 -0.244409 -0.38766 -0.036799 -0.244409 -0.0758967 -0.204812 -0.244409 -0.38766 -0.204812 -0.325277 -0.053402 0.0343791 -0.425041 -0.543586 -0.38766 -0.425041 -0.325277 -0.42688 -0.425041 -0.543586 -0.42688 -0.493404 -0.425711 -0.517822 -0.505169 -0.520207 -0.92388 -0.827124 -0.83147 -0.710043 -0.827124 -0.701612 -0.710043 -0.555875 -0.83147 -0.710043 -0.707107 -0.55371 -0.710043 -0.555875 -0.55371 -0.378035 -0.701612 -0.545193 -0.555875 -0.374401 -0.545193 -0.369916 -0.374401 -0.186836 0.371667 0.547382 0.513574 0.706459 0.547382 0.732638 0.706459 0.866801 0.513574 0.706459 0.660946 0.834861 0.706459 0.866801 0.834861 0.933789 1.05173 0.9366 1.02334 1.00444 0.9366 0.997731 1.00444 0.901496 1.02334 1.00444 0.9418 0.841537 1.00444 0.901496 0.841537 0.707412 0.997731 0.902417 0.901496 0.76689 0.902417 0.769782 0.76689 0.65573 0.901496 0.76689 0.707412 0.586856 0.138212 -0.015414 -0.0448588 -0.299409 -0.015414 -0.0758967 -0.299409 -0.502868 -0.299409 -0.502868 -0.178541 -0.306894 -0.468417 -0.505169 -0.590982 -0.497843 -0.677368 -0.590982 -0.426617 -0.464934 -0.590982 -0.497843 -0.464934 -0.354445 0.385982 0.504541 0.510573 0.615202 0.504541 0.660946 0.615202 0.796698 0.510573 0.615202 0.62027 0.781253 0.615202 0.796698 0.781253 0.94256 0.660946 0.834861 0.796698 0.919764 0.834861 0.933789 0.919764 0.997293 0.796698 0.919764 0.94256 0.94845 0.919764 0.997293 0.94845 1.03933 1.01276 0.959717 1.00286 0.970837 0.959717 0.9418 0.970837 0.878601 1.00286 0.970837 0.980765 0.886245 0.970837 0.878601 0.886245 0.754933 0.9418 0.841537 0.878601 0.751259 0.841537 0.707412 0.751259 0.622213 0.878601 0.751259 0.754933 0.62045 0.751259 0.622213 0.62045 0.445259 0.0483537 0.00223164 0.0425469 -0.087244 0.00223164 -0.085581 -0.087244 -0.270954 0.0425469 -0.087244 -0.1485 -0.307668 -0.087244 -0.270954 -0.307668 -0.543366 -0.085581 -0.178541 -0.270954 -0.496374 -0.178541 -0.306894 -0.496374 -0.54237 -0.270954 -0.496374 -0.543366 -0.876442 -0.496374 -0.54237 -0.876442 -0.729802 -0.426617 -0.464934 -0.71595 -0.603661 -0.464934 -0.354445 -0.603661 -0.505479 -0.71595 -0.603661 -0.764886 -0.657584 -0.603661 -0.505479 -0.657584 -0.506374 0.62027 0.781253 0.730765 0.907153 0.781253 0.94256 0.907153 1.00439 0.730765 0.907153 0.85243 0.924283 0.907153 1.00439 0.924283 0.990413 1.03933 0.936416 0.997858 0.95707 0.936416 0.980765 0.95707 0.855955 0.997858 0.95707 0.930799 0.837061 0.95707 0.855955 0.837061 0.711179 0.980765 0.886245 0.855955 0.726847 0.886245 0.754933 0.726847 0.593139 0.855955 0.726847 0.711179 0.577236 0.726847 0.593139 0.577236 0.399499 0.0395094 -0.0486111 -0.100031 -0.204831 -0.0486111 -0.1485 -0.204831 -0.339871 -0.100031 -0.204831 -0.207293 -0.282066 -0.204831 -0.339871 -0.282066 -0.457969 -0.1485 -0.307668 -0.339871 -0.568147 -0.307668 -0.543366 -0.568147 -0.765319 -0.339871 -0.568147 -0.457969 -0.670929 -0.568147 -0.765319 -0.670929 -0.860415 -0.729802 -0.813209 -0.931223 -0.871771 -0.813209 -0.813251 -0.871771 -0.853217 -0.931223 -0.871771 -0.938849 -0.9665 -0.871771 -0.853217 -0.9665 -0.927418 -0.813251 -1.04309 -0.853217 -0.845186 -1.04309 -0.764886 -0.845186 -0.756542 -0.853217 -0.845186 -0.927418 -0.782685 -0.845186 -0.756542 -0.782685 -0.678969 -0.707107 -0.83147 -0.826781 -0.917258 -0.83147 -0.92388 -0.917258 -0.980197 -0.826781 -0.917258 -0.922268 -0.972252 -0.917258 -0.980197 -0.972252 -1.00682 0.990413 0.961953 0.999132 0.931951 0.961953 0.930799 0.931951 0.821549 0.999132 0.931951 0.903252 0.830801 0.931951 0.821549 0.830801 0.71657 0.930799 0.837061 0.821549 0.70201 0.837061 0.711179 0.70201 0.562418 0.821549 0.70201 0.71657 0.566398 0.70201 0.562418 0.566398 0.374184 -0.207293 -0.282066 -0.338523 -0.430009 -0.282066 -0.457969 -0.430009 -0.598629 -0.338523 -0.430009 -0.406035 -0.518375 -0.430009 -0.598629 -0.518375 -0.701558 -0.860415 -0.959085 -0.934364 -0.978854 -0.959085 -0.938849 -0.978854 -0.98273 -0.934364 -0.978854 -0.966198 -0.963408 -0.978854 -0.98273 -0.963408 -0.946373 -0.938849 -0.9665 -0.98273 -0.93643 -0.9665 -0.927418 -0.93643 -0.821709 -0.936