# vtk DataFile Version 3.0
#This file was generated by the deal.II library on 2020/5/26 at 20:15:20
ASCII
DATASET UNSTRUCTURED_GRID

POINTS 25792 double
0.875 0.125 0
0.9375 0.125 0
0.875 0.1875 0
0.9375 0.1875 0
-0.6875 0.5625 0
-0.625 0.5625 0
-0.6875 0.625 0
-0.625 0.625 0
-0.125 -1 0
-0.0625 -1 0
-0.125 -0.9375 0
-0.0625 -0.9375 0
-0.0625 -1 0
0 -1 0
-0.0625 -0.9375 0
0 -0.9375 0
-0.125 -0.9375 0
-0.0625 -0.9375 0
-0.125 -0.875 0
-0.0625 -0.875 0
-0.0625 -0.9375 0
0 -0.9375 0
-0.0625 -0.875 0
0 -0.875 0
0.875 -0.9375 0
0.9375 -0.9375 0
0.875 -0.875 0
0.9375 -0.875 0
0.9375 -0.9375 0
1 -0.9375 0
0.9375 -0.875 0
1 -0.875 0
-0.125 -0.875 0
-0.0625 -0.875 0
-0.125 -0.8125 0
-0.0625 -0.8125 0
-0.25 -0.75 0
-0.1875 -0.75 0
-0.25 -0.6875 0
-0.1875 -0.6875 0
-0.5625 -0.5625 0
-0.5 -0.5625 0
-0.5625 -0.5 0
-0.5 -0.5 0
0.625 -0.625 0
0.6875 -0.625 0
0.625 -0.5625 0
0.6875 -0.5625 0
-0.6875 -0.4375 0
-0.625 -0.4375 0
-0.6875 -0.375 0
-0.625 -0.375 0
0.5 -0.5 0
0.5625 -0.5 0
0.5 -0.4375 0
0.5625 -0.4375 0
-0.8125 -0.3125 0
-0.75 -0.3125 0
-0.8125 -0.25 0
-0.75 -0.25 0
0.375 -0.375 0
0.4375 -0.375 0
0.375 -0.3125 0
0.4375 -0.3125 0
-0.9375 -0.1875 0
-0.875 -0.1875 0
-0.9375 -0.125 0
-0.875 -0.125 0
-0.75 -0.25 0
-0.6875 -0.25 0
-0.75 -0.1875 0
-0.6875 -0.1875 0
0 0 0
0.0625 0 0
0 0.0625 0
0.0625 0.0625 0
-0.125 0.125 0
-0.0625 0.125 0
-0.125 0.1875 0
-0.0625 0.1875 0
0.8125 0.125 0
0.875 0.125 0
0.8125 0.1875 0
0.875 0.1875 0
-0.4375 0.3125 0
-0.375 0.3125 0
-0.4375 0.375 0
-0.375 0.375 0
-0.25 0.25 0
-0.1875 0.25 0
-0.25 0.3125 0
-0.1875 0.3125 0
-0.5625 0.4375 0
-0.5 0.4375 0
-0.5625 0.5 0
-0.5 0.5 0
-0.375 0.375 0
-0.3125 0.375 0
-0.375 0.4375 0
-0.3125 0.4375 0
0.5 0.375 0
0.5625 0.375 0
0.5 0.4375 0
0.5625 0.4375 0
0.5625 0.375 0
0.625 0.375 0
0.5625 0.4375 0
0.625 0.4375 0
0.5 0.4375 0
0.5625 0.4375 0
0.5 0.5 0
0.5625 0.5 0
0.5625 0.4375 0
0.625 0.4375 0
0.5625 0.5 0
0.625 0.5 0
-0.1875 -0.9375 0
-0.125 -0.9375 0
-0.1875 -0.875 0
-0.125 -0.875 0
-0.5 0.5 0
-0.4375 0.5 0
-0.5 0.5625 0
-0.4375 0.5625 0
0.375 0.5 0
0.4375 0.5 0
0.375 0.5625 0
0.4375 0.5625 0
0.4375 0.5 0
0.5 0.5 0
0.4375 0.5625 0
0.5 0.5625 0
0.375 0.5625 0
0.4375 0.5625 0
0.375 0.625 0
0.4375 0.625 0
0.4375 0.5625 0
0.5 0.5625 0
0.4375 0.625 0
0.5 0.625 0
0.5 0.5 0
0.5625 0.5 0
0.5 0.5625 0
0.5625 0.5625 0
-0.625 0.625 0
-0.5625 0.625 0
-0.625 0.6875 0
-0.5625 0.6875 0
0.1875 0.6875 0
0.25 0.6875 0
0.1875 0.75 0
0.25 0.75 0
0.25 0.625 0
0.3125 0.625 0
0.25 0.6875 0
0.3125 0.6875 0
0.3125 0.625 0
0.375 0.625 0
0.3125 0.6875 0
0.375 0.6875 0
0.25 0.6875 0
0.3125 0.6875 0
0.25 0.75 0
0.3125 0.75 0
0.3125 0.6875 0
0.375 0.6875 0
0.3125 0.75 0
0.375 0.75 0
-0.75 0.75 0
-0.6875 0.75 0
-0.75 0.8125 0
-0.6875 0.8125 0
0.25 0.75 0
0.3125 0.75 0
0.25 0.8125 0
0.3125 0.8125 0
0.25 0.8125 0
0.3125 0.8125 0
0.25 0.875 0
0.3125 0.875 0
-0.3125 -0.8125 0
-0.25 -0.8125 0
-0.3125 -0.75 0
-0.25 -0.75 0
-0.4375 -0.6875 0
-0.375 -0.6875 0
-0.4375 -0.625 0
-0.375 -0.625 0
0.5625 -0.6875 0
0.625 -0.6875 0
0.5625 -0.625 0
0.625 -0.625 0
0.625 -0.75 0
0.6875 -0.75 0
0.625 -0.6875 0
0.6875 -0.6875 0
0.6875 -0.75 0
0.75 -0.75 0
0.6875 -0.6875 0
0.75 -0.6875 0
0.625 -0.6875 0
0.6875 -0.6875 0
0.625 -0.625 0
0.6875 -0.625 0
0.6875 -0.6875 0
0.75 -0.6875 0
0.6875 -0.625 0
0.75 -0.625 0
-0.375 -0.625 0
-0.3125 -0.625 0
-0.375 -0.5625 0
-0.3125 -0.5625 0
0.4375 -0.5625 0
0.5 -0.5625 0
0.4375 -0.5 0
0.5 -0.5 0
-0.5 -0.5 0
-0.4375 -0.5 0
-0.5 -0.4375 0
-0.4375 -0.4375 0
0.3125 -0.4375 0
0.375 -0.4375 0
0.3125 -0.375 0
0.375 -0.375 0
0.375 -0.5 0
0.4375 -0.5 0
0.375 -0.4375 0
0.4375 -0.4375 0
0.4375 -0.5 0
0.5 -0.5 0
0.4375 -0.4375 0
0.5 -0.4375 0
0.375 -0.4375 0
0.4375 -0.4375 0
0.375 -0.375 0
0.4375 -0.375 0
0.4375 -0.4375 0
0.5 -0.4375 0
0.4375 -0.375 0
0.5 -0.375 0
-0.625 -0.375 0
-0.5625 -0.375 0
-0.625 -0.3125 0
-0.5625 -0.3125 0
0.1875 -0.3125 0
0.25 -0.3125 0
0.1875 -0.25 0
0.25 -0.25 0
0.0625 -0.1875 0
0.125 -0.1875 0
0.0625 -0.125 0
0.125 -0.125 0
-0.875 -0.125 0
-0.8125 -0.125 0
-0.875 -0.0625 0
-0.8125 -0.0625 0
-0.0625 -0.0625 0
0 -0.0625 0
-0.0625 0 0
0 0 0
-0.1875 0.0625 0
-0.125 0.0625 0
-0.1875 0.125 0
-0.125 0.125 0
-0.3125 0.1875 0
-0.25 0.1875 0
-0.3125 0.25 0
-0.25 0.25 0
0.5625 0.3125 0
0.625 0.3125 0
0.5625 0.375 0
0.625 0.375 0
0.3125 0.5625 0
0.375 0.5625 0
0.3125 0.625 0
0.375 0.625 0
-0.75 0.625 0
-0.6875 0.625 0
-0.75 0.6875 0
-0.6875 0.6875 0
-0.6875 0.625 0
-0.625 0.625 0
-0.6875 0.6875 0
-0.625 0.6875 0
-0.75 0.6875 0
-0.6875 0.6875 0
-0.75 0.75 0
-0.6875 0.75 0
-0.8125 0.75 0
-0.75 0.75 0
-0.8125 0.8125 0
-0.75 0.8125 0
0.125 0.75 0
0.1875 0.75 0
0.125 0.8125 0
0.1875 0.8125 0
0.1875 0.75 0
0.25 0.75 0
0.1875 0.8125 0
0.25 0.8125 0
0.5 -0.625 0
0.5625 -0.625 0
0.5 -0.5625 0
0.5625 -0.5625 0
0.5625 -0.625 0
0.625 -0.625 0
0.5625 -0.5625 0
0.625 -0.5625 0
0.5 -0.5625 0
0.5625 -0.5625 0
0.5 -0.5 0
0.5625 -0.5 0
0.5625 -0.5625 0
0.625 -0.5625 0
0.5625 -0.5 0
0.625 -0.5 0
0.625 0.25 0
0.6875 0.25 0
0.625 0.3125 0
0.6875 0.3125 0
0.625 0.3125 0
0.6875 0.3125 0
0.625 0.375 0
0.6875 0.375 0
0.6875 0.3125 0
0.75 0.3125 0
0.6875 0.375 0
0.75 0.375 0
0.4375 0.4375 0
0.5 0.4375 0
0.4375 0.5 0
0.5 0.5 0
-0.625 0.5 0
-0.5625 0.5 0
-0.625 0.5625 0
-0.5625 0.5625 0
-0.5625 0.5 0
-0.5 0.5 0
-0.5625 0.5625 0
-0.5 0.5625 0
-0.625 0.5625 0
-0.5625 0.5625 0
-0.625 0.625 0
-0.5625 0.625 0
-0.5625 0.5625 0
-0.5 0.5625 0
-0.5625 0.625 0
-0.5 0.625 0
-0.25 -0.875 0
-0.1875 -0.875 0
-0.25 -0.8125 0
-0.1875 -0.8125 0
-0.1875 -0.875 0
-0.125 -0.875 0
-0.1875 -0.8125 0
-0.125 -0.8125 0
-0.25 -0.8125 0
-0.1875 -0.8125 0
-0.25 -0.75 0
-0.1875 -0.75 0
-0.1875 -0.8125 0
-0.125 -0.8125 0
-0.1875 -0.75 0
-0.125 -0.75 0
-0.375 -0.75 0
-0.3125 -0.75 0
-0.375 -0.6875 0
-0.3125 -0.6875 0
-0.3125 -0.75 0
-0.25 -0.75 0
-0.3125 -0.6875 0
-0.25 -0.6875 0
-0.375 -0.6875 0
-0.3125 -0.6875 0
-0.375 -0.625 0
-0.3125 -0.625 0
-0.3125 -0.6875 0
-0.25 -0.6875 0
-0.3125 -0.625 0
-0.25 -0.625 0
-0.5 -0.625 0
-0.4375 -0.625 0
-0.5 -0.5625 0
-0.4375 -0.5625 0
-0.4375 -0.625 0
-0.375 -0.625 0
-0.4375 -0.5625 0
-0.375 -0.5625 0
-0.5 -0.5625 0
-0.4375 -0.5625 0
-0.5 -0.5 0
-0.4375 -0.5 0
-0.4375 -0.5625 0
-0.375 -0.5625 0
-0.4375 -0.5 0
-0.375 -0.5 0
-0.625 -0.5 0
-0.5625 -0.5 0
-0.625 -0.4375 0
-0.5625 -0.4375 0
-0.5625 -0.5 0
-0.5 -0.5 0
-0.5625 -0.4375 0
-0.5 -0.4375 0
-0.625 -0.4375 0
-0.5625 -0.4375 0
-0.625 -0.375 0
-0.5625 -0.375 0
-0.5625 -0.4375 0
-0.5 -0.4375 0
-0.5625 -0.375 0
-0.5 -0.375 0
-0.75 -0.375 0
-0.6875 -0.375 0
-0.75 -0.3125 0
-0.6875 -0.3125 0
-0.6875 -0.375 0
-0.625 -0.375 0
-0.6875 -0.3125 0
-0.625 -0.3125 0
-0.75 -0.3125 0
-0.6875 -0.3125 0
-0.75 -0.25 0
-0.6875 -0.25 0
-0.6875 -0.3125 0
-0.625 -0.3125 0
-0.6875 -0.25 0
-0.625 -0.25 0
0.25 -0.375 0
0.3125 -0.375 0
0.25 -0.3125 0
0.3125 -0.3125 0
0.3125 -0.375 0
0.375 -0.375 0
0.3125 -0.3125 0
0.375 -0.3125 0
0.25 -0.3125 0
0.3125 -0.3125 0
0.25 -0.25 0
0.3125 -0.25 0
0.3125 -0.3125 0
0.375 -0.3125 0
0.3125 -0.25 0
0.375 -0.25 0
-0.875 -0.25 0
-0.8125 -0.25 0
-0.875 -0.1875 0
-0.8125 -0.1875 0
-0.8125 -0.25 0
-0.75 -0.25 0
-0.8125 -0.1875 0
-0.75 -0.1875 0
-0.875 -0.1875 0
-0.8125 -0.1875 0
-0.875 -0.125 0
-0.8125 -0.125 0
-0.8125 -0.1875 0
-0.75 -0.1875 0
-0.8125 -0.125 0
-0.75 -0.125 0
0.125 -0.25 0
0.1875 -0.25 0
0.125 -0.1875 0
0.1875 -0.1875 0
0.1875 -0.25 0
0.25 -0.25 0
0.1875 -0.1875 0
0.25 -0.1875 0
0.125 -0.1875 0
0.1875 -0.1875 0
0.125 -0.125 0
0.1875 -0.125 0
0.1875 -0.1875 0
0.25 -0.1875 0
0.1875 -0.125 0
0.25 -0.125 0
-1 -0.125 0
-0.9375 -0.125 0
-1 -0.0625 0
-0.9375 -0.0625 0
-0.9375 -0.125 0
-0.875 -0.125 0
-0.9375 -0.0625 0
-0.875 -0.0625 0
-1 -0.0625 0
-0.9375 -0.0625 0
-1 0 0
-0.9375 0 0
-0.9375 -0.0625 0
-0.875 -0.0625 0
-0.9375 0 0
-0.875 0 0
0 -0.125 0
0.0625 -0.125 0
0 -0.0625 0
0.0625 -0.0625 0
0.0625 -0.125 0
0.125 -0.125 0
0.0625 -0.0625 0
0.125 -0.0625 0
0 -0.0625 0
0.0625 -0.0625 0
0 0 0
0.0625 0 0
0.0625 -0.0625 0
0.125 -0.0625 0
0.0625 0 0
0.125 0 0
-0.125 0 0
-0.0625 0 0
-0.125 0.0625 0
-0.0625 0.0625 0
-0.0625 0 0
0 0 0
-0.0625 0.0625 0
0 0.0625 0
-0.125 0.0625 0
-0.0625 0.0625 0
-0.125 0.125 0
-0.0625 0.125 0
-0.0625 0.0625 0
0 0.0625 0
-0.0625 0.125 0
0 0.125 0
-0.25 0.125 0
-0.1875 0.125 0
-0.25 0.1875 0
-0.1875 0.1875 0
-0.1875 0.125 0
-0.125 0.125 0
-0.1875 0.1875 0
-0.125 0.1875 0
-0.25 0.1875 0
-0.1875 0.1875 0
-0.25 0.25 0
-0.1875 0.25 0
-0.1875 0.1875 0
-0.125 0.1875 0
-0.1875 0.25 0
-0.125 0.25 0
-0.375 0.25 0
-0.3125 0.25 0
-0.375 0.3125 0
-0.3125 0.3125 0
-0.3125 0.25 0
-0.25 0.25 0
-0.3125 0.3125 0
-0.25 0.3125 0
-0.375 0.3125 0
-0.3125 0.3125 0
-0.375 0.375 0
-0.3125 0.375 0
-0.3125 0.3125 0
-0.25 0.3125 0
-0.3125 0.375 0
-0.25 0.375 0
-0.5 0.375 0
-0.4375 0.375 0
-0.5 0.4375 0
-0.4375 0.4375 0
-0.4375 0.375 0
-0.375 0.375 0
-0.4375 0.4375 0
-0.375 0.4375 0
-0.5 0.4375 0
-0.4375 0.4375 0
-0.5 0.5 0
-0.4375 0.5 0
-0.4375 0.4375 0
-0.375 0.4375 0
-0.4375 0.5 0
-0.375 0.5 0
0.9375 0.125 0
0.96875 0.125 0
0.9375 0.15625 0
0.96875 0.15625 0
0.9375 0.15625 0
0.96875 0.15625 0
0.9375 0.1875 0
0.96875 0.1875 0
0.96875 0.15625 0
1 0.15625 0
0.96875 0.1875 0
1 0.1875 0
-0.5625 0.8125 0
-0.53125 0.8125 0
-0.5625 0.84375 0
-0.53125 0.84375 0
-0.53125 0.8125 0
-0.5 0.8125 0
-0.53125 0.84375 0
-0.5 0.84375 0
-0.5625 0.84375 0
-0.53125 0.84375 0
-0.5625 0.875 0
-0.53125 0.875 0
-0.53125 0.84375 0
-0.5 0.84375 0
-0.53125 0.875 0
-0.5 0.875 0
-0.625 0.9375 0
-0.59375 0.9375 0
-0.625 0.96875 0
-0.59375 0.96875 0
0.5625 0.90625 0
0.59375 0.90625 0
0.5625 0.9375 0
0.59375 0.9375 0
0.65625 0.875 0
0.6875 0.875 0
0.65625 0.90625 0
0.6875 0.90625 0
0.625 0.90625 0
0.65625 0.90625 0
0.625 0.9375 0
0.65625 0.9375 0
0.65625 0.90625 0
0.6875 0.90625 0
0.65625 0.9375 0
0.6875 0.9375 0
0.1875 -0.9375 0
0.21875 -0.9375 0
0.1875 -0.90625 0
0.21875 -0.90625 0
0.21875 -0.9375 0
0.25 -0.9375 0
0.21875 -0.90625 0
0.25 -0.90625 0
0.1875 -0.90625 0
0.21875 -0.90625 0
0.1875 -0.875 0
0.21875 -0.875 0
0.21875 -0.90625 0
0.25 -0.90625 0
0.21875 -0.875 0
0.25 -0.875 0
0.25 -1 0
0.28125 -1 0
0.25 -0.96875 0
0.28125 -0.96875 0
[...]
POINT_DATA 25792
SCALARS solution double 1
LOOKUP_TABLE default
-0.866058 -0.840363 -0.383678 -0.298502 0.921131 0.977512 0.971874 0.995576 -0.92388 -0.980785 -0.980848 -1.0001 -0.980785 -1 -1.0001 -0.980888 -0.980848 -1.0001 -1.00014 -0.980927 -1.0001 -0.980888 -0.980927 -0.923964 0.541473 0.347537 0.0561146 0.0252175 0.347537 0 0.0252175 0 -1.00014 -0.980927 -0.980907 -0.923977 -1.00013 -0.980928 -0.980949 -0.924012 -0.923936 -0.980918 -0.980911 -1.00017 0.947453 0.916074 0.972926 0.916628 -0.923894 -0.980889 -0.980863 -1.00012 0.999629 0.979625 0.981089 0.92382 -0.923927 -0.980908 -0.98089 -1.00015 1.00014 0.980948 0.980919 0.923973 -0.92388 -0.980863 -0.980825 -1.0001 -1.00015 -0.980957 -0.98094 -0.923996 1.00009 0.980888 0.980932 0.924038 1.0001 0.980879 0.980892 0.923939 -0.855864 -0.866058 -0.485858 -0.383678 0.923827 0.980783 0.980638 0.999956 1.0001 0.980926 0.980973 0.923991 0.923446 0.980349 0.979618 0.999279 0.999956 0.980992 0.980994 0.924035 -0.888084 -0.927976 -0.972907 -0.993932 -0.927976 -0.950535 -0.993932 -0.974558 -0.972907 -0.993932 -0.996083 -0.980239 -0.993932 -0.974558 -0.980239 -0.92309 -0.923883 -0.980848 -0.98088 -1.00014 0.999279 0.980958 0.981023 0.923791 -0.920591 -0.976326 -0.97196 -0.994611 -0.976326 -0.996083 -0.994611 -0.979755 -0.97196 -0.994611 -0.980771 -0.982981 -0.994611 -0.979755 -0.982981 -0.920544 -0.996083 -0.980239 -0.979755 -0.923745 0.995576 0.981949 0.985504 0.922237 -0.921266 -0.976155 -0.979199 -0.99204 -0.924004 -0.972331 -0.976155 -0.974414 -0.972331 -0.980771 -0.974414 -0.961323 -0.976155 -0.974414 -0.99204 -0.927953 -0.974414 -0.961323 -0.927953 -0.913432 0.973141 0.963003 0.926502 0.93292 -0.99204 -0.927953 -0.966695 -0.823848 -0.966695 -0.823848 -0.878939 -0.665522 -0.923903 -0.980873 -0.980871 -1.00013 -0.923914 -0.980887 -0.9809 -1.00015 0.894249 0.940496 0.9375 0.947453 0.916301 0.964418 0.940496 0.966273 0.964418 0.969004 0.966273 0.952113 0.940496 0.966273 0.947453 0.916074 0.966273 0.952113 0.916074 0.841405 -1.00015 -0.980937 -0.980967 -0.924019 0.912154 0.965311 0.980789 0.999629 -1.00017 -0.980961 -0.980953 -0.924009 0.923808 0.980823 0.980905 1.00014 0.923819 0.980789 0.980823 1.00017 0.980789 0.999629 1.00017 0.981089 0.980823 1.00017 1.00014 0.980948 1.00017 0.981089 0.980948 0.924052 -1.00012 -0.980923 -0.980924 -0.923967 0.923849 0.980843 0.980799 1.00005 0.923802 0.98077 0.980811 1.00005 -1.0001 -0.980919 -0.980899 -0.92395 0.92384 0.980809 0.98083 1.00009 0.923827 0.98082 0.980878 1.0001 0.923855 0.980827 0.980838 1.0001 -0.885088 -0.91594 -0.927976 -0.950535 -0.923025 -0.97196 -0.972331 -0.980771 0.922822 0.971874 0.973374 0.980986 0.971874 0.995576 0.980986 0.985504 0.973374 0.980986 0.973141 0.963003 0.979997 0.973141 0.977194 0.926502 -0.914336 -0.979199 -0.972804 -1.00175 -0.979199 -0.99204 -1.00175 -0.966695 0.898172 0.9375 0.965311 0.990465 0.9375 0.947453 0.990465 0.972926 0.965311 0.990465 0.999629 0.979625 0.990465 0.972926 0.979625 0.922066 -0.871604 -0.925514 -0.91594 -0.914569 -0.91594 -0.914569 -0.950535 -0.912714 -0.914569 -0.844588 -0.912714 -0.849606 -0.918121 -0.972907 -0.976326 -0.996083 0.9226 0.979618 0.977512 0.998305 0.979618 0.999279 0.998305 0.981023 0.977512 0.998305 0.995576 0.981949 0.998305 0.981023 0.981949 0.922995 -0.923881 -0.98088 -0.980873 -1.00011 -0.98088 -1.00014 -1.00011 -0.980907 -0.980873 -1.00011 -1.00013 -0.980928 -1.00011 -0.980907 -0.980928 -0.923979 -0.92389 -0.980871 -0.980887 -1.00014 -0.980871 -1.00013 -1.00014 -0.980949 -0.980887 -1.00014 -1.00015 -0.980937 -1.00014 -0.980949 -0.980937 -0.923989 -0.923925 -0.9809 -0.980918 -1.00017 -0.9809 -1.00015 -1.00017 -0.980967 -0.980918 -1.00017 -1.00017 -0.980961 -1.00017 -0.980967 -0.980961 -0.924011 -0.923929 -0.980911 -0.980889 -1.00015 -0.980911 -1.00017 -1.00015 -0.980953 -0.980889 -1.00015 -1.00012 -0.980923 -1.00015 -0.980953 -0.980923 -0.92399 -0.923893 -0.980863 -0.980908 -1.00015 -0.980863 -1.00012 -1.00015 -0.980924 -0.980908 -1.00015 -1.00015 -0.980957 -1.00015 -0.980924 -0.980957 -0.924009 0.923916 0.980905 0.980843 1.00009 0.980905 1.00014 1.00009 0.980919 0.980843 1.00009 1.00005 0.980862 1.00009 0.980919 0.980862 0.923942 -0.923906 -0.98089 -0.980863 -1.00013 -0.98089 -1.00015 -1.00013 -0.98094 -0.980863 -1.00013 -1.0001 -0.980919 -1.00013 -0.98094 -0.980919 -0.923975 0.923829 0.980799 0.98077 1 0.980799 1.00005 1 0.980828 0.98077 1 1.00005 0.980834 1 0.980828 0.980834 0.923902 -0.92388 -0.980825 -0.980785 -1.00005 -0.980825 -1.0001 -1.00005 -0.980899 -0.980785 -1.00005 -1 -0.980836 -1.00005 -0.980899 -0.980836 -0.923914 0.923844 0.980811 0.980809 1.00005 0.980811 1.00005 1.00005 0.980846 0.980809 1.00005 1.00009 0.980888 1.00005 0.980846 0.980888 0.923941 0.923833 0.98083 0.98082 1.0001 0.98083 1.00009 1.0001 0.980932 0.98082 1.0001 1.0001 0.980879 1.0001 0.980932 0.980879 0.9239 0.923889 0.980878 0.980827 1.00008 0.980878 1.0001 1.00008 0.980892 0.980827 1.00008 1.0001 0.980926 1.00008 0.980892 0.980926 0.923966 0.923879 0.980838 0.980783 1.00008 0.980838 1.0001 1.00008 0.980973 0.980783 1.00008 0.999956 0.980992 1.00008 0.980973 0.980992 0.924027 0.923737 0.980638 0.980349 0.999719 0.980638 0.999956 0.999719 0.980994 0.980349 0.999719 0.999279 0.980958 0.999719 0.980994 0.980958 0.924039 -0.840363 -0.723628 -0.654671 -0.332913 -0.654671 -0.332913 -0.298502 -0.299465 -0.332913 0 -0.299465 0 0.689278 0.63249 0.626525 0.551227 0.63249 0.56127 0.551227 0.466479 0.626525 0.551227 0.554398 0.479999 0.551227 0.466479 0.479999 0.38442 0.490827 0.416367 0.39359 0.298063 -0.112875 -0.0167505 0.00708958 0.0887047 0.0852203 0.171542 0.164404 0.258446 0.0917213 0.164404 0.173428 0.222406 0.164404 0.258446 0.222406 0.355089 -0.707175 -0.634456 -0.634452 -0.555624 -0.634456 -0.555622 -0.555624 -0.471433 -0.634452 -0.555624 -0.555625 -0.471431 -0.555624 -0.471433 -0.471431 -0.382699 -0.707107 -0.634393 -0.634446 -0.555613 -0.634393 -0.55557 -0.555613 -0.471426 -0.634446 -0.555613 -0.555622 -0.471431 -0.555613 -0.471426 -0.471431 -0.382695 -0.55557 -0.471397 -0.471426 -0.382695 -0.471397 -0.382683 -0.382695 -0.290286 -0.471426 -0.382695 -0.382695 -0.290276 -0.382695 -0.290286 -0.290276 -0.195071 -0.555622 -0.471431 -0.471433 -0.382696 -0.471431 -0.382695 -0.382696 -0.290273 -0.471433 -0.382696 -0.382699 -0.29028 -0.382683 -0.290285 -0.290286 -0.195071 0.0975258 0.192976 0.188943 0.284533 0.192976 0.284295 0.284533 0.37762 0.284295 0.369901 0.37762 0.467608 0.369901 0.447874 0.467608 0.552548 0.385363 0.474574 0.447874 0.52697 0.474574 0.556628 0.52697 0.601796 0.447874 0.52697 0.552548 0.630982 0.52697 0.601796 0.630982 0.704295 0.382683 0.29029 0.290285 0.195086 0.29029 0.195081 0.195086 0.0979955 -0.0979986 -0.195049 -0.195021 -0.290213 -0.0979737 -0.195021 -0.195027 -0.290205 -0.195021 -0.290213 -0.290205 -0.382609 0.707392 0.634535 0.634945 0.555976 0.634535 0.555928 0.555976 0.47179 0.634945 0.555976 0.555831 0.471889 0.555976 0.47179 0.471889 0.383323 0.7062 0.633977 0.635419 0.555484 0.633977 0.554323 0.555484 0.47172 0.635419 0.555484 0.555928 0.472729 0.555484 0.47172 0.472729 0.384211 0.554323 0.471608 0.47172 0.383301 0.555928 0.472729 0.47179 0.383229 0.707223 0.634514 0.634464 0.555657 0.634514 0.555704 0.555657 0.471485 0.634464 0.555657 0.555678 0.471485 0.555657 0.471485 0.471485 0.382754 0.707368 0.634557 0.63456 0.555808 0.634557 0.555831 0.555808 0.471608 0.63456 0.555808 0.555704 0.471512 0.555808 0.471608 0.471512 0.382851 0.555831 0.471889 0.471608 0.382919 0.555704 0.471512 0.471485 0.382777 0.471485 0.382777 0.382754 0.290371 0.707213 0.634498 0.634446 0.55564 0.634498 0.555678 0.55564 0.471467 0.634446 0.55564 0.555626 0.471431 0.55564 0.471467 0.471431 0.382696 0.555678 0.471485 0.471467 0.382739 0.471485 0.382754 0.382739 0.290338 0.471467 0.382739 0.382696 0.290301 -0.544496 -0.604771 -0.442399 -0.444386 0.707147 0.634419 0.63441 0.55559 0.634419 0.55558 0.55559 0.471425 0.63441 0.55559 0.555661 0.471465 0.55559 0.471425 0.471465 0.382735 0.55558 0.471404 0.471425 0.382708 0.471404 0.382684 0.382708 0.290307 0.471425 0.382708 0.382735 0.290339 0.382708 0.290307 0.290339 0.19516 0.555661 0.471465 0.471469 0.382715 0.471465 0.382735 0.382715 0.290306 0.471469 0.382715 0.382809 0.290376 0.382735 0.290339 0.290306 0.195094 0.382809 0.290376 0.291091 0.196308 0.291091 0.196308 0.196773 0.100403 0.196308 0.100538 0.100403 0.00259578 0.100538 0.0042047 0.00259578 -0.0948735 0.0042047 -0.0912399 -0.0948735 -0.190913 0.0980138 0.195066 0.195051 0.290221 0.0980125 0.195051 0.195066 0.290235 0.195051 0.290221 0.290235 0.382627 0.0980088 0.195047 0.195062 0.290227 0.098028 0.195062 0.195066 0.290242 0.195062 0.290227 0.290242 0.382637 0.382792 0.29041 0.290374 0.195226 0.382731 0.290319 0.290341 0.195184 -0.555596 -0.471421 -0.471418 -0.382699 -0.471421 -0.382701 -0.382699 -0.290286 -0.471418 -0.382699 -0.382698 -0.290286 -0.382699 -0.290286 -0.290286 -0.19507 -0.55557 -0.471412 -0.471397 -0.382695 -0.471412 -0.382698 -0.382695 -0.290288 -0.471397 -0.382695 -0.382683 -0.290289 -0.382695 -0.290288 -0.290289 -0.19508 -0.382698 -0.290286 -0.290288 -0.195073 -0.290286 -0.19507 -0.195073 -0.0979785 -0.290288 -0.195073 -0.19508 -0.0979829 -0.382701 -0.290288 -0.290286 -0.195071 -0.290288 -0.195074 -0.195071 -0.0979779 -0.290286 -0.195071 -0.19507 -0.0979763 0.0980545 0.195099 0.195119 0.290293 0.0980746 0.195119 0.195165 0.290343 0.195119 0.290293 0.290343 0.382739 0.0980249 0.195066 0.195078 0.290249 0.098037 0.195078 0.195099 0.290273 0.195078 0.290249 0.290273 0.382669 0.195066 0.290235 0.290249 0.382641 0.290235 0.382627 0.382641 0.47134 0.290249 0.382641 0.382669 0.471369 0.382641 0.47134 0.471369 0.555498 0.195099 0.290273 0.290293 0.382688 0.290273 0.382669 0.382688 0.471395 0.290293 0.382688 0.382739 0.471454 0.382688 0.471395 0.471454 0.55559 0.707214 0.634496 0.634475 0.555663 0.634496 0.555674 0.555663 0.471489 0.634475 0.555663 0.555699 0.471518 0.555663 0.471489 0.471518 0.382799 0.382799 0.290409 0.290442 0.195304 0.290409 0.195233 0.195304 0.0982852 0.382762 0.290359 0.290356 0.195168 -0.682075 -0.596914 -0.525433 -0.345643 -0.525433 -0.345643 -0.3584 -0.269312 -0.345643 0 -0.269312 0 -0.559904 -0.462226 -0.685609 -0.586954 -0.462226 -0.3584 -0.586954 -0.460903 -0.685609 -0.586954 -0.514682 -0.422557 -0.586954 -0.460903 -0.422557 -0.336017 -0.3584 -0.269312 -0.460903 -0.294953 -0.460903 -0.294953 -0.336017 -0.155473 -0.294953 0 -0.155473 0 -0.382683 -0.290289 -0.290285 -0.195081 -0.290289 -0.19508 -0.195081 -0.0979876 0.0981878 0.195245 0.195282 0.290482 0.195282 0.290482 0.290622 0.383086 0.38281 0.290419 0.290486 0.195305 0.290419 0.195245 0.195305 0.0982384 0.382773 0.290367 0.290439 0.195247 -0.69835 -0.623951 -0.631526 -0.554287 -0.623951 -0.542657 -0.554287 -0.467119 -0.631526 -0.554287 -0.554591 -0.468586 -0.514682 -0.422557 -0.606891 -0.516267 -0.422557 -0.336017 -0.516267 -0.386889 -0.606891 -0.516267 -0.542657 -0.449255 0.0980171 0.195255 0.19509 0.290546 0.195255 0.290574 0.290546 0.383281 0.19509 0.290546 0.290285 0.382845 0.290546 0.383281 0.382845 0.472069 0.290285 0.382845 0.382683 0.472079 0.382845 0.472069 0.472079 0.557169 0.556831 0.635751 0.63609 0.709342 0.635751 0.708512 0.709342 0.77599 0.63609 0.709342 0.708831 0.774523 0.709342 0.77599 0.774523 0.832721 0.555722 0.471486 0.47154 0.382832 0.471486 0.382742 0.382832 0.290385 0.47154 0.382832 0.382721 0.290339 0.382832 0.290385 0.290339 0.195166 0.555746 0.471473 0.471557 0.382869 0.471473 0.382721 0.382869 0.290408 0.471557 0.382869 0.382679 0.290338 0.382869 0.290408 0.290338 0.195182 0.382721 0.290339 0.290408 0.195121 0.382742 0.290353 0.290385 0.195129 -0.0981063 -0.195102 -0.194872 -0.289768 -0.194872 -0.289768 -0.290308 -0.382418 -0.831617 -0.771929 -0.773175 -0.707558 -0.771929 -0.705737 -0.707558 -0.635058 -0.773175 -0.707558 -0.707506 -0.634982 -0.707558 -0.635058 -0.634982 -0.55626 -0.707506 -0.634982 -0.6346 -0.555917 -0.634982 -0.55626 -0.555917 -0.47195 -0.6346 -0.555917 -0.556158 -0.471643 -0.555917 -0.47195 -0.471643 -0.383064 -0.705737 -0.635755 -0.635058 -0.555236 -0.635755 -0.554591 -0.555236 -0.471829 -0.635058 -0.555236 -0.55626 -0.472423 -0.555236 -0.471829 -0.472423 -0.383889 -0.554591 -0.468586 -0.471829 -0.384461 -0.55626 -0.472423 -0.47195 -0.383615 0.829023 0.772715 0.771622 0.705674 0.772715 0.707891 0.705674 0.633669 0.771622 0.705674 0.708074 0.636924 0.705674 0.633669 0.636924 0.555884 0.555739 0.471395 0.471648 0.382956 0.471395 0.382679 0.382956 0.290406 0.471648 0.382956 0.382515 0.29036 0.382956 0.290406 0.29036 0.195268 0.382515 0.29036 0.290371 0.194869 0.382679 0.290338 0.290406 0.195068 -0.195512 -0.2902 -0.290917 -0.382517 -0.19544 -0.290308 -0.2902 -0.382214 -0.290308 -0.382418 -0.382214 -0.471466 -0.2902 -0.382214 -0.382517 -0.471597 -0.382214 -0.471466 -0.471597 -0.556612 -0.196115 -0.290917 -0.290679 -0.382196 -0.290917 -0.382517 -0.382196 -0.470861 -0.290679 -0.382196 -0.381892 -0.468971 -0.382196 -0.470861 -0.468971 -0.554633 -0.821433 -0.76868 -0.775332 -0.706401 -0.76868 -0.709015 -0.706401 -0.630763 -0.775332 -0.706401 -0.694315 -0.634419 -0.706401 -0.630763 -0.634419 -0.561725 -0.707453 -0.635171 -0.634635 -0.555823 -0.635171 -0.556158 -0.555823 -0.471699 -0.634635 -0.555823 -0.55562 -0.470586 -0.555823 -0.471699 -0.470586 -0.382609 -0.556158 -0.471643 -0.471699 -0.383341 0.820135 0.766585 0.772227 0.704055 0.766585 0.708074 0.704055 0.630031 0.772227 0.704055 0.689278 0.63249 0.704055 0.630031 0.63249 0.56127 0.829025 0.75566 0.765578 0.694575 0.75566 0.689278 0.694575 0.626525 0.765578 0.694575 0.671266 0.596731 0.694575 0.626525 0.596731 0.554398 0.555884 0.470388 0.472692 0.384635 0.470388 0.381896 0.384635 0.29058 0.472692 0.384635 0.379516 0.288875 0.56127 0.472359 0.466479 0.382959 0.472359 0.379516 0.382959 0.293601 0.466479 0.382959 0.38442 0.287213 -0.290411 -0.381892 -0.381231 -0.466761 -0.381231 -0.466761 -0.468587 -0.547442 -0.381986 -0.468587 -0.470116 -0.547992 -0.468587 -0.547442 -0.547992 -0.618192 -0.470116 -0.547992 -0.553242 -0.621385 -0.547992 -0.618192 -0.621385 -0.683354 0.366848 0.439485 0.390635 0.455135 0.439485 0.496766 0.455135 0.523883 0.496766 0.533665 0.523883 0.593826 0.533665 0.546175 0.593826 0.660573 0.360914 0 0.276185 0 0.429173 0.276185 0.57227 0.566704 0.671266 0.596731 0.587988 0.510541 0.596731 0.554398 0.510541 0.469748 0.587988 0.510541 0.490827 0.416367 0.554398 0.479999 0.469748 0.376719 -0.707036 -0.597588 -0.520666 -0.434898 -0.597588 -0.450095 -0.434898 -0.399361 -0.520666 -0.434898 -0.446086 -0.305639 -0.434898 -0.399361 -0.305639 -0.221237 -0.463603 -0.402335 -0.414993 -0.268084 -0.399361 -0.414993 -0.221237 -0.303171 -0.446086 -0.305639 -0.236528 -0.150416 -0.305639 -0.221237 -0.150416 -0.135747 -0.236528 -0.150416 0 0 -0.150416 -0.135747 0 0 0.171542 0.258444 0.258446 0.351755 0.258444 0.332469 0.351755 0.439425 0.258446 0.351755 0.355089 0.431276 0.351755 0.439425 0.431276 0.505296 0.173428 0.222406 0.250762 0.282914 0.332469 0.390635 0.439425 0.521067 0.390635 0.455135 0.521067 0.591753 0.439425 0.521067 0.505296 0.576515 0.521067 0.591753 0.576515 0.642906 0.455135 0.523883 0.591753 0.653979 0.523883 0.593826 0.653979 0.715151 0.591753 0.653979 0.642906 0.701944 0.653979 0.715151 0.701944 0.785492 -0.707212 -0.634479 -0.634476 -0.555652 -0.634479 -0.555625 -0.555652 -0.471478 -0.634476 -0.555652 -0.55566 -0.471474 -0.555652 -0.471478 -0.471474 -0.382738 -0.555625 -0.471431 -0.471478 -0.382726 -0.471431 -0.382699 -0.382726 -0.290282 -0.471478 -0.382726 -0.382738 -0.290306 -0.55566 -0.471474 -0.471485 -0.382752 -0.471474 -0.382738 -0.382752 -0.290333 -0.471485 -0.382752 -0.382955 -0.290631 -0.382752 -0.290333 -0.290631 -0.195518 0.969004 0.951033 0.934426 0.895698 0.951033 0.922867 0.895698 0.860116 0.934426 0.895698 0.952113 0.926513 0.895698 0.860116 0.926513 0.884809 0.884809 0.83109 0.813586 0.748622 0.83109 0.767408 0.748622 0.670605 0.813586 0.748622 0.70371 0.615848 0.748622 0.670605 0.615848 0.5186 0.839991 0.772352 0.743636 0.676218 0.772352 0.637809 0.676218 0.606269 0.743636 0.676218 0.767408 0.683443 0.676218 0.606269 0.683443 0.578086 0.578086 0.433657 0.476601 0.340704 0.476601 0.340704 0.314202 0.217422 0.340704 0 0.217422 0 -0.0980153 -0.195064 -0.195058 -0.290241 -0.0980087 -0.195058 -0.195049 -0.290234 -0.195058 -0.290241 -0.290234 -0.382645 0.916628 0.87287 0.879709 0.830093 0.87287 0.829648 0.830093 0.76868 0.879709 0.830093 0.832498 0.771663 0.830093 0.76868 0.771663 0.7062 0.841405 0.775992 0.845961 0.795846 0.775992 0.70371 0.795846 0.725231 0.845961 0.795846 0.829648 0.758831 0.795846 0.725231 0.758831 0.699749 0.314202 0.217422 0.378124 0.259364 -0.0979811 -0.195027 -0.195046 -0.29022 -0.0980171 -0.195046 -0.19509 -0.290269 -0.195046 -0.29022 -0.290269 -0.382647 0.707147 0.634443 0.634422 0.555594 0.634443 0.555626 0.555594 0.471416 0.634422 0.555594 0.55558 0.471404 0.555594 0.471416 0.471404 0.382684 0.707177 0.634474 0.634476 0.555648 0.634474 0.555661 0.555648 0.471469 0.634476 0.555648 0.555655 0.471499 0.555648 0.471469 0.471499 0.382809 -0.370995 -0.440455 -0.414646 -0.500733 -0.440455 -0.484015 -0.500733 -0.582335 -0.484015 -0.495007 -0.582335 -0.660266 -0.348928 -0.414646 -0.469088 -0.55417 -0.414646 -0.500733 -0.55417 -0.631223 -0.469088 -0.55417 -0.542263 -0.617055 -0.55417 -0.631223 -0.617055 -0.683668 -0.736078 -0.755919 -0.846797 -0.765635 -0.908839 -0.846797 -0.82593 -0.785658 -0.846797 -0.765635 -0.785658 -0.729014 -0.765635 -0.683064 -0.729014 -0.68563 -0.729014 -0.68563 -0.755795 -0.703597 -0.755795 -0.703597 -0.840363 -0.723628 -0.555607 -0.47143 -0.471425 -0.382704 -0.47143 -0.38271 -0.382704 -0.290293 -0.471425 -0.382704 -0.382701 -0.290288 -0.382704 -0.290293 -0.290288 -0.195074 -0.38271 -0.290299 -0.290293 -0.195079 -0.290299 -0.195086 -0.195079 -0.0979875 -0.290293 -0.195079 -0.195074 -0.0979817 0.707193 0.634474 0.634466 0.55566 0.634474 0.555667 0.55566 0.471492 0.634466 0.55566 0.555674 0.471484 0.55566 0.471492 0.471484 0.382762 -0.281971 -0.373093 -0.355298 -0.437439 -0.355298 -0.437439 -0.455382 -0.536473 -0.815037 -0.836874 -0.856159 -0.860399 -0.836874 -0.855864 -0.860399 -0.847294 -0.856159 -0.860399 -0.636998 -0.564934 -0.860399 -0.847294 -0.564934 -0.485858 -0.92388 -0.881921 -0.881978 -0.831528 -0.881921 -0.83147 -0.831528 -0.773069 -0.881978 -0.831528 -0.831535 -0.773081 -0.831528 -0.773069 -0.773081 -0.707175 0.922237 0.877668 0.881449 0.831045 0.877668 0.829023 0.831045 0.771622 0.881449 0.831045 0.820135 0.766585 0.831045 0.771622 0.766585 0.708074 -0.925867 -0.876064 -0.859034 -0.824133 -0.876064 -0.821433 -0.824133 -0.775332 -0.859034 -0.824133 -0.823567 -0.761361 -0.824133 -0.775332 -0.761361 -0.694315 0.93292 0.889812 0.868675 0.820852 0.889812 0.829025 0.820852 0.765578 0.868675 0.820852 0.828703 0.764513 0.820852 0.765578 0.764513 0.671266 -0.913432 -0.862082 -0.829803 -0.798585 -0.862082 -0.823567 -0.798585 -0.756466 -0.829803 -0.798585 -0.818256 -0.751406 -0.798585 -0.756466 -0.751406 -0.667353 -0.823567 -0.761361 -0.756466 -0.695598 -0.761361 -0.694315 -0.695598 -0.633837 -0.756466 -0.695598 -0.667353 -0.610442 -0.695598 -0.633837 -0.610442 -0.555472 -0.818256 -0.751406 -0.660654 -0.656317 -0.751406 -0.667353 -0.656317 -0.611834 -0.660654 -0.656317 -0.707036 -0.597588 -0.656317 -0.611834 -0.597588 -0.450095 0.92388 0.951243 0.95694 0.966127 0.951243 0.970405 0.966127 0.981349 0.980785 0.900398 0.995185 0.800427 0.908094 0.882096 0.876795 0.822441 0.882096 0.828703 0.822441 0.765414 0.764513 0.671266 0.685388 0.587988 0.765414 0.685388 0.683734 0.556402 0.685388 0.587988 0.556402 0.490827 0.556402 0.490827 0.336834 0.39359 0.500957 0.336834 0 0 -0.553242 -0.621385 -0.625591 -0.680445 -0.621385 -0.683354 -0.680445 -0.733617 -0.625591 -0.680445 -0.671707 -0.731096 -0.680445 -0.733617 -0.731096 -0.76997 -0.671707 -0.731096 -0.633628 -0.772153 -0.731096 -0.76997 -0.772153 -0.792147 -0.683354 -0.765164 -0.733617 -0.830844 -0.970695 -0.945735 -0.944701 -0.858971 -0.945735 -0.878939 -0.858