# vtk DataFile Version 3.0
#This file was generated by the deal.II library on 2020/5/26 at 20:15:31
ASCII
DATASET UNSTRUCTURED_GRID

POINTS 25996 double
-1 -1 0
-0.875 -1 0
-1 -0.875 0
-0.875 -0.875 0
-0.875 -1 0
-0.75 -1 0
-0.875 -0.875 0
-0.75 -0.875 0
-0.75 -1 0
-0.625 -1 0
-0.75 -0.875 0
-0.625 -0.875 0
-0.625 -1 0
-0.5 -1 0
-0.625 -0.875 0
-0.5 -0.875 0
-0.5 -1 0
-0.375 -1 0
-0.5 -0.875 0
-0.375 -0.875 0
-0.375 -1 0
-0.25 -1 0
-0.375 -0.875 0
-0.25 -0.875 0
-0.25 -1 0
-0.125 -1 0
-0.25 -0.875 0
-0.125 -0.875 0
-0.125 -1 0
0 -1 0
-0.125 -0.875 0
0 -0.875 0
0 -1 0
0.125 -1 0
0 -0.875 0
0.125 -0.875 0
0.125 -1 0
0.25 -1 0
0.125 -0.875 0
0.25 -0.875 0
-1 -0.875 0
-0.875 -0.875 0
-1 -0.75 0
-0.875 -0.75 0
-0.875 -0.875 0
-0.75 -0.875 0
-0.875 -0.75 0
-0.75 -0.75 0
-0.75 -0.875 0
-0.625 -0.875 0
-0.75 -0.75 0
-0.625 -0.75 0
-0.625 -0.875 0
-0.5 -0.875 0
-0.625 -0.75 0
-0.5 -0.75 0
-0.5 -0.875 0
-0.375 -0.875 0
-0.5 -0.75 0
-0.375 -0.75 0
-0.375 -0.875 0
-0.25 -0.875 0
-0.375 -0.75 0
-0.25 -0.75 0
-1 -0.75 0
-0.875 -0.75 0
-1 -0.625 0
-0.875 -0.625 0
-0.875 -0.75 0
-0.75 -0.75 0
-0.875 -0.625 0
-0.75 -0.625 0
-0.75 -0.75 0
-0.625 -0.75 0
-0.75 -0.625 0
-0.625 -0.625 0
-0.625 -0.75 0
-0.5 -0.75 0
-0.625 -0.625 0
-0.5 -0.625 0
-0.5 -0.75 0
-0.375 -0.75 0
-0.5 -0.625 0
-0.375 -0.625 0
-0.375 -0.75 0
-0.25 -0.75 0
-0.375 -0.625 0
-0.25 -0.625 0
-0.25 -0.75 0
-0.125 -0.75 0
-0.25 -0.625 0
-0.125 -0.625 0
-0.125 -0.75 0
0 -0.75 0
-0.125 -0.625 0
0 -0.625 0
0 -0.75 0
0.125 -0.75 0
0 -0.625 0
0.125 -0.625 0
-1 -0.625 0
-0.875 -0.625 0
-1 -0.5 0
-0.875 -0.5 0
-0.875 -0.625 0
-0.75 -0.625 0
-0.875 -0.5 0
-0.75 -0.5 0
-0.75 -0.625 0
-0.625 -0.625 0
-0.75 -0.5 0
-0.625 -0.5 0
-0.625 -0.625 0
-0.5 -0.625 0
-0.625 -0.5 0
-0.5 -0.5 0
-0.5 -0.625 0
-0.375 -0.625 0
-0.5 -0.5 0
-0.375 -0.5 0
-0.375 -0.625 0
-0.25 -0.625 0
-0.375 -0.5 0
-0.25 -0.5 0
-0.25 -0.625 0
-0.125 -0.625 0
-0.25 -0.5 0
-0.125 -0.5 0
-0.125 -0.625 0
0 -0.625 0
-0.125 -0.5 0
0 -0.5 0
0 -0.625 0
0.125 -0.625 0
0 -0.5 0
0.125 -0.5 0
0.125 -0.625 0
0.25 -0.625 0
0.125 -0.5 0
0.25 -0.5 0
0.25 -0.625 0
0.375 -0.625 0
0.25 -0.5 0
0.375 -0.5 0
-1 -0.5 0
-0.875 -0.5 0
-1 -0.375 0
-0.875 -0.375 0
-0.875 -0.5 0
-0.75 -0.5 0
-0.875 -0.375 0
-0.75 -0.375 0
-0.75 -0.5 0
-0.625 -0.5 0
-0.75 -0.375 0
-0.625 -0.375 0
-0.625 -0.5 0
-0.5 -0.5 0
-0.625 -0.375 0
-0.5 -0.375 0
-0.5 -0.5 0
-0.375 -0.5 0
-0.5 -0.375 0
-0.375 -0.375 0
-0.375 -0.5 0
-0.25 -0.5 0
-0.375 -0.375 0
-0.25 -0.375 0
-0.25 -0.5 0
-0.125 -0.5 0
-0.25 -0.375 0
-0.125 -0.375 0
-0.125 -0.5 0
0 -0.5 0
-0.125 -0.375 0
0 -0.375 0
0 -0.5 0
0.125 -0.5 0
0 -0.375 0
0.125 -0.375 0
0.125 -0.5 0
0.25 -0.5 0
0.125 -0.375 0
0.25 -0.375 0
0.25 -0.5 0
0.375 -0.5 0
0.25 -0.375 0
0.375 -0.375 0
-1 -0.375 0
-0.875 -0.375 0
-1 -0.25 0
-0.875 -0.25 0
-0.875 -0.375 0
-0.75 -0.375 0
-0.875 -0.25 0
-0.75 -0.25 0
-0.75 -0.375 0
-0.625 -0.375 0
-0.75 -0.25 0
-0.625 -0.25 0
-0.625 -0.375 0
-0.5 -0.375 0
-0.625 -0.25 0
-0.5 -0.25 0
-0.5 -0.375 0
-0.375 -0.375 0
-0.5 -0.25 0
-0.375 -0.25 0
-0.375 -0.375 0
-0.25 -0.375 0
-0.375 -0.25 0
-0.25 -0.25 0
-0.25 -0.375 0
-0.125 -0.375 0
-0.25 -0.25 0
-0.125 -0.25 0
-0.125 -0.375 0
0 -0.375 0
-0.125 -0.25 0
0 -0.25 0
0 -0.375 0
0.125 -0.375 0
0 -0.25 0
0.125 -0.25 0
0.125 -0.375 0
0.25 -0.375 0
0.125 -0.25 0
0.25 -0.25 0
0.25 -0.375 0
0.375 -0.375 0
0.25 -0.25 0
0.375 -0.25 0
0.375 -0.375 0
0.5 -0.375 0
0.375 -0.25 0
0.5 -0.25 0
-1 -0.25 0
-0.875 -0.25 0
-1 -0.125 0
-0.875 -0.125 0
-0.875 -0.25 0
-0.75 -0.25 0
-0.875 -0.125 0
-0.75 -0.125 0
-0.75 -0.25 0
-0.625 -0.25 0
-0.75 -0.125 0
-0.625 -0.125 0
-0.625 -0.25 0
-0.5 -0.25 0
-0.625 -0.125 0
-0.5 -0.125 0
-0.5 -0.25 0
-0.375 -0.25 0
-0.5 -0.125 0
-0.375 -0.125 0
-0.375 -0.25 0
-0.25 -0.25 0
-0.375 -0.125 0
-0.25 -0.125 0
-0.25 -0.25 0
-0.125 -0.25 0
-0.25 -0.125 0
-0.125 -0.125 0
-0.125 -0.25 0
0 -0.25 0
-0.125 -0.125 0
0 -0.125 0
0 -0.25 0
0.125 -0.25 0
0 -0.125 0
0.125 -0.125 0
0.125 -0.25 0
0.25 -0.25 0
0.125 -0.125 0
0.25 -0.125 0
0.25 -0.25 0
0.375 -0.25 0
0.25 -0.125 0
0.375 -0.125 0
-1 -0.125 0
-0.875 -0.125 0
-1 0 0
-0.875 0 0
-0.875 -0.125 0
-0.75 -0.125 0
-0.875 0 0
-0.75 0 0
-0.75 -0.125 0
-0.625 -0.125 0
-0.75 0 0
-0.625 0 0
-0.625 -0.125 0
-0.5 -0.125 0
-0.625 0 0
-0.5 0 0
-0.5 -0.125 0
-0.375 -0.125 0
-0.5 0 0
-0.375 0 0
-0.375 -0.125 0
-0.25 -0.125 0
-0.375 0 0
-0.25 0 0
-0.25 -0.125 0
-0.125 -0.125 0
-0.25 0 0
-0.125 0 0
-0.125 -0.125 0
0 -0.125 0
-0.125 0 0
0 0 0
0 -0.125 0
0.125 -0.125 0
0 0 0
0.125 0 0
-1 0 0
-0.875 0 0
-1 0.125 0
-0.875 0.125 0
-0.875 0 0
-0.75 0 0
-0.875 0.125 0
-0.75 0.125 0
-0.75 0 0
-0.625 0 0
-0.75 0.125 0
-0.625 0.125 0
-0.625 0 0
-0.5 0 0
-0.625 0.125 0
-0.5 0.125 0
-0.5 0 0
-0.375 0 0
-0.5 0.125 0
-0.375 0.125 0
-0.375 0 0
-0.25 0 0
-0.375 0.125 0
-0.25 0.125 0
-0.25 0 0
-0.125 0 0
-0.25 0.125 0
-0.125 0.125 0
-0.125 0 0
0 0 0
-0.125 0.125 0
0 0.125 0
0.25 0 0
0.375 0 0
0.25 0.125 0
0.375 0.125 0
-1 0.125 0
-0.875 0.125 0
-1 0.25 0
-0.875 0.25 0
-0.875 0.125 0
-0.75 0.125 0
-0.875 0.25 0
-0.75 0.25 0
-0.75 0.125 0
-0.625 0.125 0
-0.75 0.25 0
-0.625 0.25 0
-0.625 0.125 0
-0.5 0.125 0
-0.625 0.25 0
-0.5 0.25 0
-0.5 0.125 0
-0.375 0.125 0
-0.5 0.25 0
-0.375 0.25 0
-0.25 0.125 0
-0.125 0.125 0
-0.25 0.25 0
-0.125 0.25 0
-0.125 0.125 0
0 0.125 0
-0.125 0.25 0
0 0.25 0
-1 0.25 0
-0.875 0.25 0
-1 0.375 0
-0.875 0.375 0
-0.875 0.25 0
-0.75 0.25 0
-0.875 0.375 0
-0.75 0.375 0
-0.75 0.25 0
-0.625 0.25 0
-0.75 0.375 0
-0.625 0.375 0
-0.375 0.25 0
-0.25 0.25 0
-0.375 0.375 0
-0.25 0.375 0
-0.25 0.25 0
-0.125 0.25 0
-0.25 0.375 0
-0.125 0.375 0
-0.125 0.25 0
0 0.25 0
-0.125 0.375 0
0 0.375 0
0 0.25 0
0.125 0.25 0
0 0.375 0
0.125 0.375 0
-1 0.375 0
-0.875 0.375 0
-1 0.5 0
-0.875 0.5 0
-0.875 0.375 0
-0.75 0.375 0
-0.875 0.5 0
-0.75 0.5 0
-0.75 0.375 0
-0.625 0.375 0
-0.75 0.5 0
-0.625 0.5 0
-0.5 0.375 0
-0.375 0.375 0
-0.5 0.5 0
-0.375 0.5 0
-0.375 0.375 0
-0.25 0.375 0
-0.375 0.5 0
-0.25 0.5 0
-0.25 0.375 0
-0.125 0.375 0
-0.25 0.5 0
-0.125 0.5 0
-0.125 0.375 0
0 0.375 0
-0.125 0.5 0
0 0.5 0
0 0.375 0
0.125 0.375 0
0 0.5 0
0.125 0.5 0
-1 0.5 0
-0.875 0.5 0
-1 0.625 0
-0.875 0.625 0
-0.5 0.5 0
-0.375 0.5 0
-0.5 0.625 0
-0.375 0.625 0
-0.375 0.5 0
-0.25 0.5 0
-0.375 0.625 0
-0.25 0.625 0
-0.25 0.5 0
-0.125 0.5 0
-0.25 0.625 0
-0.125 0.625 0
-0.125 0.5 0
0 0.5 0
-0.125 0.625 0
0 0.625 0
0.5 -0.25 0
0.5625 -0.25 0
0.5 -0.1875 0
0.5625 -0.1875 0
0.5625 -0.25 0
0.625 -0.25 0
0.5625 -0.1875 0
0.625 -0.1875 0
0.5 -0.1875 0
0.5625 -0.1875 0
0.5 -0.125 0
0.5625 -0.125 0
0.625 -0.25 0
0.6875 -0.25 0
0.625 -0.1875 0
0.6875 -0.1875 0
0.125 -0.125 0
0.1875 -0.125 0
0.125 -0.0625 0
0.1875 -0.0625 0
0.1875 -0.125 0
0.25 -0.125 0
0.1875 -0.0625 0
0.25 -0.0625 0
0.125 -0.0625 0
0.1875 -0.0625 0
0.125 0 0
0.1875 0 0
0.1875 -0.0625 0
0.25 -0.0625 0
0.1875 0 0
0.25 0 0
0.25 -0.125 0
0.3125 -0.125 0
0.25 -0.0625 0
0.3125 -0.0625 0
0.3125 -0.125 0
0.375 -0.125 0
0.3125 -0.0625 0
0.375 -0.0625 0
0.25 -0.0625 0
0.3125 -0.0625 0
0.25 0 0
0.3125 0 0
0.3125 -0.0625 0
0.375 -0.0625 0
0.3125 0 0
0.375 0 0
0.375 -0.125 0
0.4375 -0.125 0
0.375 -0.0625 0
0.4375 -0.0625 0
0.4375 -0.125 0
0.5 -0.125 0
0.4375 -0.0625 0
0.5 -0.0625 0
0.375 -0.0625 0
0.4375 -0.0625 0
0.375 0 0
0.4375 0 0
0.4375 -0.0625 0
0.5 -0.0625 0
0.4375 0 0
0.5 0 0
0.5 -0.0625 0
0.5625 -0.0625 0
0.5 0 0
0.5625 0 0
0.25 -1 0
0.3125 -1 0
0.25 -0.9375 0
0.3125 -0.9375 0
0.3125 -1 0
0.375 -1 0
0.3125 -0.9375 0
0.375 -0.9375 0
0.25 -0.9375 0
0.3125 -0.9375 0
0.25 -0.875 0
0.3125 -0.875 0
0.3125 -0.9375 0
0.375 -0.9375 0
0.3125 -0.875 0
0.375 -0.875 0
0.375 -1 0
0.4375 -1 0
0.375 -0.9375 0
0.4375 -0.9375 0
0.4375 -1 0
0.5 -1 0
0.4375 -0.9375 0
0.5 -0.9375 0
0.375 -0.9375 0
0.4375 -0.9375 0
0.375 -0.875 0
0.4375 -0.875 0
0.4375 -0.9375 0
0.5 -0.9375 0
0.4375 -0.875 0
0.5 -0.875 0
0 0 0
0.0625 0 0
0 0.0625 0
0.0625 0.0625 0
0.0625 0 0
0.125 0 0
0.0625 0.0625 0
0.125 0.0625 0
0 0.0625 0
0.0625 0.0625 0
0 0.125 0
0.0625 0.125 0
0.0625 0.0625 0
0.125 0.0625 0
0.0625 0.125 0
0.125 0.125 0
0.125 0 0
0.1875 0 0
0.125 0.0625 0
0.1875 0.0625 0
0.1875 0 0
0.25 0 0
0.1875 0.0625 0
0.25 0.0625 0
0.125 0.0625 0
0.1875 0.0625 0
0.125 0.125 0
0.1875 0.125 0
0.1875 0.0625 0
0.25 0.0625 0
0.1875 0.125 0
0.25 0.125 0
0.375 0 0
0.4375 0 0
0.375 0.0625 0
0.4375 0.0625 0
0.4375 0 0
0.5 0 0
0.4375 0.0625 0
0.5 0.0625 0
0.375 0.0625 0
0.4375 0.0625 0
0.375 0.125 0
0.4375 0.125 0
0.4375 0.0625 0
0.5 0.0625 0
0.4375 0.125 0
0.5 0.125 0
0.5 0 0
0.5625 0 0
0.5 0.0625 0
0.5625 0.0625 0
0.5 0.0625 0
0.5625 0.0625 0
0.5 0.125 0
0.5625 0.125 0
0.375 -0.625 0
0.4375 -0.625 0
0.375 -0.5625 0
0.4375 -0.5625 0
0.4375 -0.625 0
0.5 -0.625 0
0.4375 -0.5625 0
0.5 -0.5625 0
0.375 -0.5625 0
0.4375 -0.5625 0
0.375 -0.5 0
0.4375 -0.5 0
-0.375 0.125 0
-0.3125 0.125 0
-0.375 0.1875 0
-0.3125 0.1875 0
-0.3125 0.125 0
-0.25 0.125 0
-0.3125 0.1875 0
-0.25 0.1875 0
-0.375 0.1875 0
-0.3125 0.1875 0
-0.375 0.25 0
-0.3125 0.25 0
-0.3125 0.1875 0
-0.25 0.1875 0
-0.3125 0.25 0
-0.25 0.25 0
0 0.125 0
0.0625 0.125 0
0 0.1875 0
0.0625 0.1875 0
0.0625 0.125 0
0.125 0.125 0
0.0625 0.1875 0
0.125 0.1875 0
0 0.1875 0
0.0625 0.1875 0
0 0.25 0
0.0625 0.25 0
0.0625 0.1875 0
0.125 0.1875 0
0.0625 0.25 0
0.125 0.25 0
0.125 0.125 0
0.1875 0.125 0
0.125 0.1875 0
0.1875 0.1875 0
0.1875 0.125 0
0.25 0.125 0
0.1875 0.1875 0
0.25 0.1875 0
0.125 0.1875 0
0.1875 0.1875 0
0.125 0.25 0
0.1875 0.25 0
0.1875 0.1875 0
0.25 0.1875 0
0.1875 0.25 0
0.25 0.25 0
0.25 0.125 0
0.3125 0.125 0
0.25 0.1875 0
0.3125 0.1875 0
0.3125 0.125 0
0.375 0.125 0
0.3125 0.1875 0
0.375 0.1875 0
0.25 0.1875 0
0.3125 0.1875 0
0.25 0.25 0
0.3125 0.25 0
0.3125 0.1875 0
0.375 0.1875 0
0.3125 0.25 0
0.375 0.25 0
0.375 0.125 0
0.4375 0.125 0
0.375 0.1875 0
0.4375 0.1875 0
0.4375 0.125 0
0.5 0.125 0
0.4375 0.1875 0
0.5 0.1875 0
0.375 0.1875 0
0.4375 0.1875 0
0.375 0.25 0
0.4375 0.25 0
0.4375 0.1875 0
0.5 0.1875 0
0.4375 0.25 0
0.5 0.25 0
0.5 0.1875 0
0.5625 0.1875 0
0.5 0.25 0
0.5625 0.25 0
0.5625 0.1875 0
0.625 0.1875 0
0.5625 0.25 0
0.625 0.25 0
0.625 0.1875 0
0.6875 0.1875 0
0.625 0.25 0
[...]
POINT_DATA 25996
SCALARS solution double 1
LOOKUP_TABLE default
1 0.92388 0.92388 0.708768 0.92388 0.707107 0.708768 0.388129 0.707107 0.382683 0.388129 0.00358563 0.382683 -1.83697e-16 0.00358563 -0.38532 -1.83697e-16 -0.382683 -0.38532 -0.714678 -0.382683 -0.707107 -0.714678 -0.93306 -0.707107 -0.92388 -0.93306 -1.00645 -0.92388 -1 -1.00645 -0.928648 -1 -0.92388 -0.928648 -0.709688 -0.92388 -0.707107 -0.709688 -0.380798 0.92388 0.708768 0.707107 0.384726 0.708768 0.388129 0.384726 0.0014644 0.388129 0.00358563 0.0014644 -0.382751 0.00358563 -0.38532 -0.382751 -0.708304 -0.38532 -0.714678 -0.708304 -0.928786 -0.714678 -0.93306 -0.928786 -1.00968 0.707107 0.384726 0.382683 7.07946e-05 0.384726 0.0014644 7.07946e-05 -0.383854 0.0014644 -0.382751 -0.383854 -0.711338 -0.382751 -0.708304 -0.711338 -0.932447 -0.708304 -0.928786 -0.932447 -1.01059 -0.928786 -1.00968 -1.01059 -0.932977 -1.00968 -0.932628 -0.932977 -0.71503 -0.932628 -0.717525 -0.71503 -0.392866 -0.717525 -0.387499 -0.392866 -0.00774063 0.382683 7.07946e-05 -1.83697e-16 -0.382885 7.07946e-05 -0.383854 -0.382885 -0.71046 -0.383854 -0.711338 -0.71046 -0.93136 -0.711338 -0.932447 -0.93136 -1.01084 -0.932447 -1.01059 -1.01084 -0.936419 -1.01059 -0.932977 -0.936419 -0.719658 -0.932977 -0.71503 -0.719658 -0.393555 -0.71503 -0.392866 -0.393555 -0.00776973 -0.392866 -0.00774063 -0.00776973 0.37646 -0.00774063 0.378415 0.37646 0.700211 0.378415 0.705716 0.700211 0.915532 -1.83697e-16 -0.382885 -0.382683 -0.710128 -0.382885 -0.71046 -0.710128 -0.930327 -0.71046 -0.93136 -0.930327 -1.01014 -0.93136 -1.01084 -1.01014 -0.937265 -1.01084 -0.936419 -0.937265 -0.720263 -0.936419 -0.719658 -0.720263 -0.393088 -0.719658 -0.393555 -0.393088 -0.00783239 -0.393555 -0.00776973 -0.00783239 0.378213 -0.00776973 0.37646 0.378213 0.707691 0.37646 0.700211 0.707691 0.927739 0.700211 0.915532 0.927739 1.00401 -0.382683 -0.710128 -0.707107 -0.921738 -0.710128 -0.930327 -0.921738 -0.999648 -0.930327 -1.01014 -0.999648 -0.928769 -1.01014 -0.937265 -0.928769 -0.714197 -0.937265 -0.720263 -0.714197 -0.388999 -0.720263 -0.393088 -0.388999 -0.00629218 -0.393088 -0.00783239 -0.00629218 0.376805 -0.00783239 0.378213 0.376805 0.704003 0.378213 0.707691 0.704003 0.922335 0.707691 0.927739 0.922335 0.997094 0.927739 1.00401 0.997094 0.922797 1.00401 0.922453 0.922797 0.706467 -0.707107 -0.921738 -0.92388 -1.00202 -0.921738 -0.999648 -1.00202 -0.929048 -0.999648 -0.928769 -0.929048 -0.711875 -0.928769 -0.714197 -0.711875 -0.385553 -0.714197 -0.388999 -0.385553 -0.00238838 -0.388999 -0.00629218 -0.00238838 0.380682 -0.00629218 0.376805 0.380682 0.706555 0.376805 0.704003 0.706555 0.925271 0.704003 0.922335 0.925271 0.999286 0.922335 0.997094 0.999286 0.922108 0.997094 0.922797 0.922108 0.704798 -0.92388 -1.00202 -1 -0.925201 -1.00202 -0.929048 -0.925201 -0.710645 -0.929048 -0.711875 -0.710645 -0.387561 -0.711875 -0.385553 -0.387561 -0.00279764 -0.385553 -0.00238838 -0.00279764 0.383677 -0.00238838 0.380682 0.383677 0.710074 0.380682 0.706555 0.710074 0.927556 0.706555 0.925271 0.927556 1.00541 0.925271 0.999286 1.00541 0.923835 -1 -0.925201 -0.92388 -0.708282 -0.925201 -0.710645 -0.708282 -0.385284 -0.710645 -0.387561 -0.385284 -0.000970047 -0.387561 -0.00279764 -0.000970047 0.385095 -0.00279764 0.383677 0.385095 0.709529 0.383677 0.710074 0.709529 0.927585 0.710074 0.927556 0.927585 1.0083 0.927556 1.00541 1.0083 0.934304 0.706148 0.382016 0.385876 -8.04282e-05 -0.92388 -0.708282 -0.707107 -0.384238 -0.708282 -0.385284 -0.384238 -0.000905832 -0.385284 -0.000970047 -0.000905832 0.384688 -0.000970047 0.385095 0.384688 0.71132 0.385095 0.709529 0.71132 0.927944 0.927585 1.0083 1.00659 0.933131 1.0083 0.934304 0.933131 0.715213 -0.707107 -0.384238 -0.382683 -0.000428198 -0.384238 -0.000905832 -0.000428198 0.384484 -0.000905832 0.384688 0.384484 0.711192 0.927944 1.00659 1.00581 0.93343 1.00659 0.933131 0.93343 0.71889 0.933131 0.715213 0.71889 0.38994 0.715213 0.386141 0.38994 0.00297591 -0.382683 -0.000428198 6.12323e-17 0.383168 -0.000428198 0.384484 0.383168 0.711341 0.384484 0.711192 0.711341 0.928749 0.929595 1.00581 1.00589 0.929115 1.00581 0.93343 0.929115 0.719582 0.93343 0.71889 0.719582 0.391755 0.71889 0.38994 0.391755 0.00521774 0.38994 0.00297591 0.00521774 -0.376265 6.12323e-17 0.383168 0.382683 0.709212 1.00589 0.929115 0.929996 0.712601 0.929115 0.719582 0.712601 0.395679 0.719582 0.391755 0.395679 0.000103414 0.391755 0.00521774 0.000103414 -0.380812 0.706467 0.555781 0.554253 0.380889 0.555781 0.381233 0.380889 0.19384 0.554253 0.380889 0.378542 0.191607 0.381233 0.191846 0.19384 -0.000793571 0.999286 0.976687 0.978423 0.923291 0.976687 0.922108 0.923291 0.830831 0.978423 0.923291 0.923835 0.831989 0.923291 0.830831 0.831989 0.706148 0.922108 0.828727 0.830831 0.704034 0.828727 0.704798 0.704034 0.552835 0.830831 0.704034 0.706148 0.55382 0.704034 0.552835 0.55382 0.382016 0.704798 0.552941 0.552835 0.380282 0.552941 0.378542 0.380282 0.192279 0.552835 0.380282 0.382016 0.191705 0.380282 0.192279 0.191705 -0.00351749 0.192279 -0.00346126 -0.00351749 -0.197868 -0.707107 -0.55557 -0.55182 -0.380612 -0.55557 -0.382683 -0.380612 -0.19584 -0.55182 -0.380612 -0.380798 -0.192721 -0.380612 -0.19584 -0.192721 0.00295207 -0.382683 -0.19509 -0.19584 -0.000836911 -0.19509 6.12323e-17 -0.000836911 0.195506 -0.19584 -0.000836911 0.00295207 0.197696 -0.000836911 0.195506 0.197696 0.383671 1.00541 0.981239 0.980807 0.926354 0.981239 0.923835 0.926354 0.83591 0.980807 0.926354 0.934304 0.837403 0.926354 0.83591 0.837403 0.709495 0.923835 0.831989 0.83591 0.70922 0.831989 0.706148 0.70922 0.555468 0.83591 0.70922 0.709495 0.559264 0.70922 0.555468 0.559264 0.385876 0.382016 0.191705 0.192559 -0.00197339 0.191705 -0.00351749 -0.00197339 -0.196629 0.192559 -0.00197339 -8.04282e-05 -0.195888 -0.00197339 -0.196629 -0.195888 -0.385208 -0.00351749 -0.197868 -0.196629 -0.38605 -0.196629 -0.38605 -0.385208 -0.557952 0.705716 0.830094 0.828817 0.92236 0.830094 0.925702 0.92236 0.980902 0.828817 0.92236 0.915532 0.975649 0.709529 0.832975 0.836271 0.927497 0.832975 0.927585 0.927497 0.983984 0.836271 0.927497 0.927944 0.983882 0.927497 0.983984 0.983882 1.00659 0.934304 0.837403 0.832564 0.712333 0.837403 0.709495 0.712333 0.565673 0.832564 0.712333 0.715213 0.561279 0.712333 0.565673 0.561279 0.386141 0.709495 0.559264 0.565673 0.387045 0.559264 0.385876 0.387045 0.194832 0.565673 0.387045 0.386141 0.198322 0.387045 0.194832 0.198322 0.00690665 0.385876 0.195142 0.194832 0.00176454 0.195142 -8.04282e-05 0.00176454 -0.192941 0.194832 0.00176454 0.00690665 -0.191041 0.00176454 -0.192941 -0.191041 -0.382613 -8.04282e-05 -0.195888 -0.192941 -0.382361 -0.195888 -0.385208 -0.382361 -0.555917 -0.192941 -0.382361 -0.382613 -0.554462 -0.382361 -0.555917 -0.554462 -0.705197 -0.555917 -0.708253 -0.705197 -0.831002 -0.708253 -0.834004 -0.831002 -0.924615 -0.834004 -0.926533 -0.924615 -0.982571 0.384688 0.560499 0.561396 0.711673 0.560499 0.71132 0.711673 0.835743 0.561396 0.711673 0.711192 0.835658 0.711673 0.835743 0.835658 0.929595 0.71132 0.835112 0.835743 0.929335 0.835112 0.927944 0.929335 0.987503 0.835743 0.929335 0.929595 0.984481 0.929335 0.987503 0.984481 1.00581 0.386141 0.198322 0.198458 0.00321393 0.198322 0.00690665 0.00321393 -0.192849 0.198458 0.00321393 0.00297591 -0.19188 0.00321393 -0.192849 -0.19188 -0.380244 0.00690665 -0.191041 -0.192849 -0.379472 -0.191041 -0.382613 -0.379472 -0.550067 -0.192849 -0.379472 -0.380244 -0.553599 -0.379472 -0.550067 -0.553599 -0.705648 -0.382613 -0.554462 -0.550067 -0.703827 -0.554462 -0.705197 -0.703827 -0.830901 -0.550067 -0.703827 -0.705648 -0.828727 -0.703827 -0.830901 -0.828727 -0.918596 -0.705197 -0.831002 -0.830901 -0.922914 -0.831002 -0.924615 -0.922914 -0.979823 0.711192 0.835658 0.837145 0.930761 0.835658 0.929595 0.930761 0.987569 0.837145 0.930761 0.928749 0.986159 0.930761 0.987569 0.986159 1.00589 0.00297591 -0.19188 -0.191067 -0.380736 -0.19188 -0.380244 -0.380736 -0.553779 -0.191067 -0.380736 -0.376265 -0.549132 -0.380736 -0.553779 -0.549132 -0.702426 -0.380244 -0.553599 -0.553779 -0.705163 -0.553599 -0.705648 -0.705163 -0.82989 -0.553779 -0.705163 -0.702426 -0.828262 -0.705163 -0.82989 -0.828262 -0.920581 -0.705648 -0.828727 -0.82989 -0.922655 -0.828727 -0.918596 -0.922655 -0.978698 -0.82989 -0.922655 -0.920581 -0.976802 0.711341 0.832449 0.835553 0.928482 0.832449 0.928749 0.928482 0.986899 0.835553 0.928482 0.928957 0.987238 0.928482 0.986899 0.987238 1.00573 0.928749 0.986159 0.986899 1.0067 0.986159 1.00589 1.0067 0.987828 0.986899 1.0067 1.00573 0.98727 1.0067 0.987828 0.98727 0.929996 0.00521774 -0.192848 -0.188181 -0.373281 -0.192848 -0.376265 -0.373281 -0.547169 -0.188181 -0.373281 -0.380812 -0.554338 -0.373281 -0.547169 -0.554338 -0.707552 -0.376265 -0.549132 -0.547169 -0.69974 -0.549132 -0.702426 -0.69974 -0.823837 -0.547169 -0.69974 -0.707552 -0.831383 -0.69974 -0.823837 -0.831383 -0.924183 -0.702426 -0.828262 -0.823837 -0.917628 -0.828262 -0.920581 -0.917628 -0.978387 -0.823837 -0.917628 -0.924183 -0.980717 -0.917628 -0.978387 -0.980717 -0.99753 -0.920581 -0.976802 -0.978387 -1.00212 -0.976802 -0.997667 -1.00212 -0.987329 -0.978387 -1.00212 -0.99753 -0.976579 -1.00212 -0.987329 -0.976579 -0.919675 0.709212 0.834591 0.829026 0.923326 0.928957 0.987238 0.981585 1.00057 0.987238 1.00573 1.00057 0.982217 0.981585 1.00057 0.999632 0.981414 1.00057 0.982217 0.981414 0.926403 1.00573 0.98727 0.982217 0.925905 0.98727 0.929996 0.925905 0.830727 0.982217 0.925905 0.926403 0.833301 0.925905 0.830727 0.833301 0.705538 0.000103414 -0.1908 -0.18858 -0.377561 -0.1908 -0.380812 -0.377561 -0.553138 -0.18858 -0.377561 -0.381191 -0.553187 -0.377561 -0.553138 -0.553187 -0.70162 -0.380812 -0.554338 -0.553138 -0.704522 -0.554338 -0.707552 -0.704522 -0.826678 -0.553138 -0.704522 -0.70162 -0.827229 -0.831383 -0.924183 -0.919481 -0.977428 -0.919481 -0.977428 -0.978146 -0.995315 -0.924183 -0.980717 -0.977428 -0.996663 -0.980717 -0.99753 -0.996663 -0.978351 -0.977428 -0.996663 -0.995315 -0.976197 -0.99753 -0.976579 -0.978351 -0.92184 -0.976579 -0.919675 -0.92184 -0.828034 -0.978351 -0.92184 -0.919837 -0.827482 -0.92184 -0.828034 -0.827482 -0.702968 -0.919675 -0.827569 -0.828034 -0.702411 -0.827569 -0.704282 -0.702411 -0.552199 0.999632 0.981414 0.98131 0.924698 0.926403 0.833301 0.833342 0.70708 0.833301 0.705538 0.70708 0.554069 0.833342 0.70708 0.713516 0.558815 -0.827126 -0.702578 -0.705289 -0.553314 -0.702578 -0.545691 -0.553314 -0.36651 -0.55114 -0.379609 -0.377756 -0.192918 -0.545691 -0.377756 -0.36651 -0.193327 -0.377756 -0.192918 -0.193327 0.00158587 -0.379609 -0.191199 -0.192918 0.00339099 -0.553314 -0.36651 -0.381084 -0.170931 6.12323e-17 0.19509 0.195506 0.38312 0.19509 0.382683 0.38312 0.555742 0.382683 0.55557 0.555742 0.707324 -0.93306 -0.98231 -0.982775 -1.00741 -0.98231 -1.00645 -1.00741 -0.991971 -0.982775 -1.00741 -1.00968 -0.990046 -1.00741 -0.991971 -0.990046 -0.932628 -1.00645 -0.983046 -0.991971 -0.928997 -0.983046 -0.928648 -0.928997 -0.834409 -0.991971 -0.928997 -0.932628 -0.837492 -0.928997 -0.834409 -0.837492 -0.717525 -0.928648 -0.831236 -0.834409 -0.711359 -0.831236 -0.709688 -0.711359 -0.560294 -0.834409 -0.711359 -0.717525 -0.561988 -0.711359 -0.560294 -0.561988 -0.387499 -0.709688 -0.555114 -0.560294 -0.382182 -0.555114 -0.380798 -0.382182 -0.192709 -0.560294 -0.382182 -0.387499 -0.194806 -0.382182 -0.192709 -0.194806 -0.00121085 -0.380798 -0.192721 -0.192709 0.000396222 -0.192721 0.00295207 0.000396222 0.196503 -0.192709 0.000396222 -0.00121085 0.194718 0.000396222 0.196503 0.194718 0.385309 0.00295207 0.197696 0.196503 0.386168 0.196503 0.386168 0.385309 0.557223 0.386168 0.559058 0.557223 0.708571 0.559058 0.709503 0.708571 0.834856 0.709503 0.832719 0.834856 0.928198 0.832719 0.924335 0.928198 0.983561 -0.387499 -0.194806 -0.196923 -0.0026017 -0.194806 -0.00121085 -0.0026017 0.190815 -0.196923 -0.0026017 -0.00774063 0.190053 -0.0026017 0.190815 0.190053 0.378415 -0.00121085 0.194718 0.190815 0.382333 0.194718 0.385309 0.382333 0.556801 0.190815 0.382333 0.378415 0.554761 0.382333 0.556801 0.554761 0.705716 0.385309 0.557223 0.556801 0.707258 0.557223 0.708571 0.707258 0.833525 0.556801 0.707258 0.705716 0.830094 0.708571 0.834856 0.833525 0.926616 0.834856 0.928198 0.926616 0.983387 0.709491 0.554414 0.55267 0.380436 0.922797 0.829324 0.827139 0.704536 0.829324 0.706467 0.704536 0.554253 0.827139 0.704536 0.704798 0.552941 0.704536 0.554253 0.552941 0.378542 0.395679 0.200066 0.197847 0.00186058 0.200066 0.000103414 0.00186058 -0.18858 -0.704282 -0.555558 -0.552199 -0.380184 -0.555558 -0.380242 -0.380184 -0.192115 0.925702 0.983586 0.980902 1.00222 0.922453 0.83282 0.830202 0.70387 0.83282 0.709491 0.70387 0.55267 0.830202 0.70387 0.706467 0.555781 0.70387 0.55267 0.555781 0.381233 -0.918596 -0.978614 -0.978698 -0.998371 -0.997667 -0.97616 -0.987329 -0.935297 -0.97616 -0.915986 -0.935297 -0.846935 -0.987329 -0.935297 -0.919675 -0.827569 -0.935297 -0.846935 -0.827569 -0.704282 0.916581 0.821123 0.844861 0.72977 0.821123 0.692258 0.72977 0.579203 0.383168 0.554889 0.557949 0.711211 0.554889 0.711341 0.711211 0.835553 0.557949 0.711211 0.709212 0.834591 0.711211 0.835553 0.834591 0.928957 -0.915986 -0.818385 -0.846935 -0.726616 -0.818385 -0.688498 -0.726616 -0.582158 -0.846935 -0.726616 -0.704282 -0.555558 0.382683 0.552812 0.55557 0.705951 0.552812 0.709212 0.705951 0.829026 0.55557 0.705951 0.707107 0.828615 0.712601 0.564107 0.561839 0.395652 0.564107 0.395679 0.395652 0.197847 0.561839 0.395652 0.393809 0.207372 0.395652 0.197847 0.207372 -0.000915557 0.705538 0.560182 0.554069 0.39748 0.554069 0.39748 0.383615 0.238733 0.915532 0.975649 0.977313 1.00535 0.975649 1.0003 1.00535 0.986699 0.977313 1.00535 1.00401 0.977783 1.00535 0.986699 0.977783 0.922453 1.0003 0.976242 0.986699 0.93245 0.976242 0.916581 0.93245 0.844861 0.986699 0.93245 0.922453 0.83282 0.93245 0.844861 0.83282 0.709491 0.929996 0.829668 0.830727 0.706672 0.829668 0.712601 0.706672 0.561839 0.830727 0.706672 0.705538 0.560182 0.706672 0.561839 0.560182 0.393809 0.383615 0.238733 0.189882 0.0971357 0.238733 0.165353 0.0971357 0.0636807 0.189882 0.0971357 0 0 0.0971357 0.0636807 0 0 0.380889 0.288203 0.2876 0.192981 0.288203 0.19384 0.192981 0.0960191 0.2876 0.192981 0.191607 0.0952509 0.192981 0.0960191 0.0952509 -0.00263936 0.191846 0.0946452 0.0962469 -0.00250138 0.0946452 -0.00310308 -0.00250138 -0.101163 0.0962469 -0.00250138 -0.000793571 -0.0991507 -0.00250138 -0.101163 -0.0991507 -0.196921 0.19384 0.0970765 0.0960191 -0.00192685 0.0970765 -0.000793571 -0.00192685 -0.0994566 0.0960191 -0.00192685 -0.00263936 -0.100317 -0.00192685 -0.0994566 -0.100317 -0.197167 -0.000793571 -0.0991507 -0.0994566 -0.196038 -0.0994566 -0.196038 -0.197167 -0.292152 -0.196038 -0.291189 -0.292152 -0.384157 -0.00310308 -0.100769 -0.101163 -0.198415 0.378542 0.285904 0.286186 0.191012 0.285904 0.191607 0.191012 0.0940805 0.286186 0.191012 0.192279 0.0948805 0.191012 0.0940805 0.0948805 -0.00346126 0.191607 0.0952509 0.0940805 -0.00416173 0.0952509 -0.00263936 -0.00416173 -0.101722 0.0940805 -0.00416173 -0.00346126 -0.10233 -0.00416173 -0.101722 -0.10233 -0.19943 -0.00346126 -0.10233 -0.1016 -0.198638 -0.10233 -0.19943 -0.198638 -0.294071 -0.1016 -0.198638 -0.197868 -0.293394 -0.198638 -0.294071 -0.293394 -0.386235 -0.00263936 -0.100317 -0.101722 -0.198118 -0.100317 -0.197167 -0.198118 -0.292912 -0.101722 -0.198118 -0.19943 -0.294415 -0.198118 -0.292912 -0.294415 -0.386337 -0.197167 -0.292152 -0.292912 -0.385021 -0.292912 -0.385021 -0.386337 -0.474486 -0.385021 -0.47352 -0.474486 -0.558242 -0.19943 -0.294415 -0.294071 -0.386903 -0.294415 -0.386337 -0.386903 -0.475719 -0.294071 -0.386903 -0.386235 -0.475001 -0.386903 -0.475719 -0.475001 -0.559418 -0.386337 -0.474486 -0.475719 -0.55969 -0.474486 -0.558242 -0.55969 -0.638068 -0.475719 -0.55969 -0.559418 -0.638605 -0.55969 -0.638068 -0.638605 -0.711428 -0.47352 -0.557427 -0.558242 -0.636772 -0.558242 -0.636772 -0.638068 -0.710259 -0.638068 -0.710259 -0.711428 -0.777122 -0.197868 -0.293394 -0.294447 -0.386368 -0.293394 -0.386235 -0.386368 -0.474429 -0.294447 -0.386368 -0.38605 -0.475273 -0.386368 -0.474429 -0.475273 -0.559578 0.834591 0.879604 0.882724 0.925816 0.879604 0.928957 0.925816 0.958207 0.882724 0.925816 0.923326 0.957496 0.925816 0.958207 0.957496 0.981585 -0.38605 -0.475273 -0.474054 -0.558404 -0.475273 -0.559578 -0.558404 -0.637674 -0.474054 -0.558404 -0.557952 -0.636483 -0.558404 -0.637674 -0.636483 -0.709644 -0.386235 -0.475001 -0.474429 -0.55872 -0.475001 -0.559418 -0.55872 -0.637905 -0.474429 -0.55872 -0.559578 -0.638017 -0.55872 -0.637905 -0.638017 -0.710339 -0.559418 -0.638605 -0.637905 -0.710799 -0.638605 -0.711428 -0.710799 -0.776935 -0.637905 -0.710799 -0.710339 -0.776296 -0.710799 -0.776935 -0.776296 -0.835 -0.559578 -0.638017 -0.637674 -0.710979 -0.638017 -0.710339 -0.710979 -0.777046 -0.637674 -0.710979 -0.709644 -0.776017 -0.710979 -0.777046 -0.776017 -0.83493 -0.710339 -0.776296 -0.777046 -0.835156 -0.776296 -0.835 -0.835156 -0.885267 -0.777046 -0.835156 -0.83493 -0.885813 -0.835156 -0.885267 -0.885813 -0.927862 -0.711428 -0.777122 -0.776935 -0.835676 -0.776935 -0.835676 -0.835 -0.88565 -0.835 -0.88565 -0.885267 -0.927228 -0.885267 -0.927228 -0.927862 -0.960633 0.829026 0.879722 0.880358 0.922269 0.879722 0.923326 0.922269 0.954361 -0.385208 -0.474264 -0.473207 -0.557626 -0.474264 -0.557952 -0.557626 -0.636598 -0.473207 -0.557626 -0.555917 -0.635033 -0.557626 -0.636598 -0.635033 -0.708253 -0.557952 -0.636483 -0.636598 -0.70967 -0.636483 -0.709644 -0.70967 -0.775494 -0.636598 -0.70967 -0.708253 -0.775052 -0.70967 -0.775494 -0.775052 -0.834004 -0.709644 -0.776017 -0.775494 -0.833916 -0.776017 -0.83493 -0.833916 -0.884628 -0.775494 -0.833916 -0.834004 -0.884716 -0.833916 -0.884628 -0.884716 -0.926533 -0.83493 -0.885813 -0.884628 -0.926949 -0.885813 -0.927862 -0.926949 -0.960435 -0.884628 -0.926949 -0.926533 -0.959481 -0.926533 -0.959481 -0.95954 -0.983512 -0.959481 -0.983527 -0.983512 -0.99784 -0.95954 -0.983512 -0.982571 -0.997453 -0.704522 -0.769151 -0.770732 -0.829394 -0.769151 -0.826678 -0.829394 -0.87943 -0.770732 -0.829394 -0.827229 -0.878862 -0.829394 -0.87943 -0.878862 -0.921455 -0.707552 -0.765602 -0.768844 -0.828769 -0.765602 -0.831383 -0.828769 -0.878477 -0.768844 -0.828769 -0.826678 -0.877424 -0.828769 -0.878477 -0.877424 -0.919481 -0.826678 -0.877424 -0.87943 -0.92035 -0.877424 -0.919481 -0.92035 -0.952605 -0.87943 -0.92035 -0.921455 -0.954672 -0.92035 -0.952605 -0.954672 -0.978146 -0.996663 -0.990095 -0.990921 -0.97679 -0.990095 -0.978351 -0.97679 -0.952674 -0.990921 -0.97679 -0.976197 -0.952819 -0.97679 -0.952674 -0.952819 -0.919837 -0.828034 -0.767268 -0.76934 -0.702659 -0.767268 -0.702411 -0.702659 -0.629021 -0.76934 -0.702659 -0.702968 -0.629173 -0.702659 -0.629021 -0.629173 -0.55114 0.981414 0.954912 0.954676 0.921631 0.954912 0.926403 0.921631 0.879619 0.954676 0.921631 0.924698 0.88365 0.921631 0.879619 0.88365 0.833342 0.98131 0.955673 0.956638 0.922856 0.955673 0.924698 0.922856 0.880061 0.956638 0.922856 0.925508 0.884894 0.922856 0.880061 0.884894 0.836586 0.924698 0.88365 0.880061 0.828983 0.88365 0.833342 0.828983 0.769273 0.880061 0.828983 0.836586 0.779079 0.828983 0.769273 0.779079 0.713516 -0.192122 -0.287455 -0.290374 -0.381469 -0.287455 -0.381191 -0.381469 -0.468827 -0.290374 -0.381469 -0.378857 -0.469667 -0.381469 -0.468827 -0.469667 -0.555419 -0.378857 -0.469667 -0.470446 -0.553127 -0.469667 -0.555419 -0.553127 -0.63167 -0.381191 -0.47014 -0.468827 -0.552835 -0.47014 -0.553187 -0.552835 -0.632734 -0.468827 -0.552835 -0.555419 -0.633251 -0.70162 -0.76799 -0.770453 -0.827252 -0.76799 -0.827229 -0.827252 -0.876815 -0.770453 -0.827252 -0.829682 -0.880257 -0.827252 -0.876815 -0.880257 -0.92123 -0.827229 -0.878862 -0.876815 -0.918915 -0.878862 -0.921455 -0.918915 -0.95278 -0.876815 -0.918915 -0.92123 -0.952864 -0.918915 -0.95278 -0.952864 -0.975902 -0.829682 -0.880257 -0.879792 -0.92159