# vtk DataFile Version 3.0
#This file was generated by the deal.II library on 2020/5/26 at 20:15:26
ASCII
DATASET UNSTRUCTURED_GRID

POINTS 13744 double
-1 -1 0
-0.875 -1 0
-1 -0.875 0
-0.875 -0.875 0
-0.875 -1 0
-0.75 -1 0
-0.875 -0.875 0
-0.75 -0.875 0
-0.75 -1 0
-0.625 -1 0
-0.75 -0.875 0
-0.625 -0.875 0
-0.625 -1 0
-0.5 -1 0
-0.625 -0.875 0
-0.5 -0.875 0
-0.5 -1 0
-0.375 -1 0
-0.5 -0.875 0
-0.375 -0.875 0
-0.375 -1 0
-0.25 -1 0
-0.375 -0.875 0
-0.25 -0.875 0
-0.25 -1 0
-0.125 -1 0
-0.25 -0.875 0
-0.125 -0.875 0
-0.125 -1 0
0 -1 0
-0.125 -0.875 0
0 -0.875 0
0 -1 0
0.125 -1 0
0 -0.875 0
0.125 -0.875 0
0.125 -1 0
0.25 -1 0
0.125 -0.875 0
0.25 -0.875 0
-1 -0.875 0
-0.875 -0.875 0
-1 -0.75 0
-0.875 -0.75 0
-0.875 -0.875 0
-0.75 -0.875 0
-0.875 -0.75 0
-0.75 -0.75 0
-0.75 -0.875 0
-0.625 -0.875 0
-0.75 -0.75 0
-0.625 -0.75 0
-0.625 -0.875 0
-0.5 -0.875 0
-0.625 -0.75 0
-0.5 -0.75 0
-0.5 -0.875 0
-0.375 -0.875 0
-0.5 -0.75 0
-0.375 -0.75 0
-0.375 -0.875 0
-0.25 -0.875 0
-0.375 -0.75 0
-0.25 -0.75 0
-1 -0.75 0
-0.875 -0.75 0
-1 -0.625 0
-0.875 -0.625 0
-0.875 -0.75 0
-0.75 -0.75 0
-0.875 -0.625 0
-0.75 -0.625 0
-0.75 -0.75 0
-0.625 -0.75 0
-0.75 -0.625 0
-0.625 -0.625 0
-0.625 -0.75 0
-0.5 -0.75 0
-0.625 -0.625 0
-0.5 -0.625 0
-0.5 -0.75 0
-0.375 -0.75 0
-0.5 -0.625 0
-0.375 -0.625 0
-0.375 -0.75 0
-0.25 -0.75 0
-0.375 -0.625 0
-0.25 -0.625 0
-0.25 -0.75 0
-0.125 -0.75 0
-0.25 -0.625 0
-0.125 -0.625 0
-0.125 -0.75 0
0 -0.75 0
-0.125 -0.625 0
0 -0.625 0
0 -0.75 0
0.125 -0.75 0
0 -0.625 0
0.125 -0.625 0
-1 -0.625 0
-0.875 -0.625 0
-1 -0.5 0
-0.875 -0.5 0
-0.875 -0.625 0
-0.75 -0.625 0
-0.875 -0.5 0
-0.75 -0.5 0
-0.75 -0.625 0
-0.625 -0.625 0
-0.75 -0.5 0
-0.625 -0.5 0
-0.625 -0.625 0
-0.5 -0.625 0
-0.625 -0.5 0
-0.5 -0.5 0
-0.5 -0.625 0
-0.375 -0.625 0
-0.5 -0.5 0
-0.375 -0.5 0
-0.375 -0.625 0
-0.25 -0.625 0
-0.375 -0.5 0
-0.25 -0.5 0
-0.25 -0.625 0
-0.125 -0.625 0
-0.25 -0.5 0
-0.125 -0.5 0
-0.125 -0.625 0
0 -0.625 0
-0.125 -0.5 0
0 -0.5 0
0 -0.625 0
0.125 -0.625 0
0 -0.5 0
0.125 -0.5 0
0.125 -0.625 0
0.25 -0.625 0
0.125 -0.5 0
0.25 -0.5 0
0.25 -0.625 0
0.375 -0.625 0
0.25 -0.5 0
0.375 -0.5 0
-1 -0.5 0
-0.875 -0.5 0
-1 -0.375 0
-0.875 -0.375 0
-0.875 -0.5 0
-0.75 -0.5 0
-0.875 -0.375 0
-0.75 -0.375 0
-0.75 -0.5 0
-0.625 -0.5 0
-0.75 -0.375 0
-0.625 -0.375 0
-0.625 -0.5 0
-0.5 -0.5 0
-0.625 -0.375 0
-0.5 -0.375 0
-0.5 -0.5 0
-0.375 -0.5 0
-0.5 -0.375 0
-0.375 -0.375 0
-0.375 -0.5 0
-0.25 -0.5 0
-0.375 -0.375 0
-0.25 -0.375 0
-0.25 -0.5 0
-0.125 -0.5 0
-0.25 -0.375 0
-0.125 -0.375 0
-0.125 -0.5 0
0 -0.5 0
-0.125 -0.375 0
0 -0.375 0
0 -0.5 0
0.125 -0.5 0
0 -0.375 0
0.125 -0.375 0
0.125 -0.5 0
0.25 -0.5 0
0.125 -0.375 0
0.25 -0.375 0
0.25 -0.5 0
0.375 -0.5 0
0.25 -0.375 0
0.375 -0.375 0
0.375 -0.5 0
0.5 -0.5 0
0.375 -0.375 0
0.5 -0.375 0
0.5 -0.5 0
0.625 -0.5 0
0.5 -0.375 0
0.625 -0.375 0
-1 -0.375 0
-0.875 -0.375 0
-1 -0.25 0
-0.875 -0.25 0
-0.875 -0.375 0
-0.75 -0.375 0
-0.875 -0.25 0
-0.75 -0.25 0
-0.75 -0.375 0
-0.625 -0.375 0
-0.75 -0.25 0
-0.625 -0.25 0
-0.625 -0.375 0
-0.5 -0.375 0
-0.625 -0.25 0
-0.5 -0.25 0
-0.5 -0.375 0
-0.375 -0.375 0
-0.5 -0.25 0
-0.375 -0.25 0
-0.375 -0.375 0
-0.25 -0.375 0
-0.375 -0.25 0
-0.25 -0.25 0
-0.25 -0.375 0
-0.125 -0.375 0
-0.25 -0.25 0
-0.125 -0.25 0
-0.125 -0.375 0
0 -0.375 0
-0.125 -0.25 0
0 -0.25 0
0 -0.375 0
0.125 -0.375 0
0 -0.25 0
0.125 -0.25 0
0.125 -0.375 0
0.25 -0.375 0
0.125 -0.25 0
0.25 -0.25 0
0.25 -0.375 0
0.375 -0.375 0
0.25 -0.25 0
0.375 -0.25 0
0.375 -0.375 0
0.5 -0.375 0
0.375 -0.25 0
0.5 -0.25 0
-1 -0.25 0
-0.875 -0.25 0
-1 -0.125 0
-0.875 -0.125 0
-0.875 -0.25 0
-0.75 -0.25 0
-0.875 -0.125 0
-0.75 -0.125 0
-0.75 -0.25 0
-0.625 -0.25 0
-0.75 -0.125 0
-0.625 -0.125 0
-0.625 -0.25 0
-0.5 -0.25 0
-0.625 -0.125 0
-0.5 -0.125 0
-0.5 -0.25 0
-0.375 -0.25 0
-0.5 -0.125 0
-0.375 -0.125 0
-0.375 -0.25 0
-0.25 -0.25 0
-0.375 -0.125 0
-0.25 -0.125 0
-0.25 -0.25 0
-0.125 -0.25 0
-0.25 -0.125 0
-0.125 -0.125 0
-0.125 -0.25 0
0 -0.25 0
-0.125 -0.125 0
0 -0.125 0
0 -0.25 0
0.125 -0.25 0
0 -0.125 0
0.125 -0.125 0
0.125 -0.25 0
0.25 -0.25 0
0.125 -0.125 0
0.25 -0.125 0
0.25 -0.25 0
0.375 -0.25 0
0.25 -0.125 0
0.375 -0.125 0
-1 -0.125 0
-0.875 -0.125 0
-1 0 0
-0.875 0 0
-0.875 -0.125 0
-0.75 -0.125 0
-0.875 0 0
-0.75 0 0
-0.75 -0.125 0
-0.625 -0.125 0
-0.75 0 0
-0.625 0 0
-0.625 -0.125 0
-0.5 -0.125 0
-0.625 0 0
-0.5 0 0
-0.5 -0.125 0
-0.375 -0.125 0
-0.5 0 0
-0.375 0 0
-0.375 -0.125 0
-0.25 -0.125 0
-0.375 0 0
-0.25 0 0
-0.25 -0.125 0
-0.125 -0.125 0
-0.25 0 0
-0.125 0 0
-0.125 -0.125 0
0 -0.125 0
-0.125 0 0
0 0 0
0 -0.125 0
0.125 -0.125 0
0 0 0
0.125 0 0
-1 0 0
-0.875 0 0
-1 0.125 0
-0.875 0.125 0
-0.875 0 0
-0.75 0 0
-0.875 0.125 0
-0.75 0.125 0
-0.75 0 0
-0.625 0 0
-0.75 0.125 0
-0.625 0.125 0
-0.625 0 0
-0.5 0 0
-0.625 0.125 0
-0.5 0.125 0
-0.5 0 0
-0.375 0 0
-0.5 0.125 0
-0.375 0.125 0
-0.375 0 0
-0.25 0 0
-0.375 0.125 0
-0.25 0.125 0
-0.25 0 0
-0.125 0 0
-0.25 0.125 0
-0.125 0.125 0
-0.125 0 0
0 0 0
-0.125 0.125 0
0 0.125 0
0.25 0 0
0.375 0 0
0.25 0.125 0
0.375 0.125 0
-1 0.125 0
-0.875 0.125 0
-1 0.25 0
-0.875 0.25 0
-0.875 0.125 0
-0.75 0.125 0
-0.875 0.25 0
-0.75 0.25 0
-0.75 0.125 0
-0.625 0.125 0
-0.75 0.25 0
-0.625 0.25 0
-0.625 0.125 0
-0.5 0.125 0
-0.625 0.25 0
-0.5 0.25 0
-0.5 0.125 0
-0.375 0.125 0
-0.5 0.25 0
-0.375 0.25 0
-0.25 0.125 0
-0.125 0.125 0
-0.25 0.25 0
-0.125 0.25 0
-0.125 0.125 0
0 0.125 0
-0.125 0.25 0
0 0.25 0
-1 0.25 0
-0.875 0.25 0
-1 0.375 0
-0.875 0.375 0
-0.875 0.25 0
-0.75 0.25 0
-0.875 0.375 0
-0.75 0.375 0
-0.75 0.25 0
-0.625 0.25 0
-0.75 0.375 0
-0.625 0.375 0
-0.375 0.25 0
-0.25 0.25 0
-0.375 0.375 0
-0.25 0.375 0
-0.25 0.25 0
-0.125 0.25 0
-0.25 0.375 0
-0.125 0.375 0
-0.125 0.25 0
0 0.25 0
-0.125 0.375 0
0 0.375 0
0 0.25 0
0.125 0.25 0
0 0.375 0
0.125 0.375 0
-1 0.375 0
-0.875 0.375 0
-1 0.5 0
-0.875 0.5 0
-0.875 0.375 0
-0.75 0.375 0
-0.875 0.5 0
-0.75 0.5 0
-0.75 0.375 0
-0.625 0.375 0
-0.75 0.5 0
-0.625 0.5 0
-0.5 0.375 0
-0.375 0.375 0
-0.5 0.5 0
-0.375 0.5 0
-0.375 0.375 0
-0.25 0.375 0
-0.375 0.5 0
-0.25 0.5 0
-0.25 0.375 0
-0.125 0.375 0
-0.25 0.5 0
-0.125 0.5 0
-0.125 0.375 0
0 0.375 0
-0.125 0.5 0
0 0.5 0
0 0.375 0
0.125 0.375 0
0 0.5 0
0.125 0.5 0
-1 0.5 0
-0.875 0.5 0
-1 0.625 0
-0.875 0.625 0
-0.5 0.5 0
-0.375 0.5 0
-0.5 0.625 0
-0.375 0.625 0
-0.375 0.5 0
-0.25 0.5 0
-0.375 0.625 0
-0.25 0.625 0
-0.25 0.5 0
-0.125 0.5 0
-0.25 0.625 0
-0.125 0.625 0
-0.125 0.5 0
0 0.5 0
-0.125 0.625 0
0 0.625 0
-0.5 0.625 0
-0.375 0.625 0
-0.5 0.75 0
-0.375 0.75 0
-0.5 0.875 0
-0.375 0.875 0
-0.5 1 0
-0.375 1 0
0.5 -0.25 0
0.5625 -0.25 0
0.5 -0.1875 0
0.5625 -0.1875 0
0.5625 -0.25 0
0.625 -0.25 0
0.5625 -0.1875 0
0.625 -0.1875 0
0.5 -0.1875 0
0.5625 -0.1875 0
0.5 -0.125 0
0.5625 -0.125 0
0.625 -0.25 0
0.6875 -0.25 0
0.625 -0.1875 0
0.6875 -0.1875 0
0.125 -0.125 0
0.1875 -0.125 0
0.125 -0.0625 0
0.1875 -0.0625 0
0.1875 -0.125 0
0.25 -0.125 0
0.1875 -0.0625 0
0.25 -0.0625 0
0.125 -0.0625 0
0.1875 -0.0625 0
0.125 0 0
0.1875 0 0
0.1875 -0.0625 0
0.25 -0.0625 0
0.1875 0 0
0.25 0 0
0.25 -0.125 0
0.3125 -0.125 0
0.25 -0.0625 0
0.3125 -0.0625 0
0.3125 -0.125 0
0.375 -0.125 0
0.3125 -0.0625 0
0.375 -0.0625 0
0.25 -0.0625 0
0.3125 -0.0625 0
0.25 0 0
0.3125 0 0
0.3125 -0.0625 0
0.375 -0.0625 0
0.3125 0 0
0.375 0 0
0.375 -0.125 0
0.4375 -0.125 0
0.375 -0.0625 0
0.4375 -0.0625 0
0.4375 -0.125 0
0.5 -0.125 0
0.4375 -0.0625 0
0.5 -0.0625 0
0.375 -0.0625 0
0.4375 -0.0625 0
0.375 0 0
0.4375 0 0
0.4375 -0.0625 0
0.5 -0.0625 0
0.4375 0 0
0.5 0 0
0.5 -0.0625 0
0.5625 -0.0625 0
0.5 0 0
0.5625 0 0
0.25 -1 0
0.3125 -1 0
0.25 -0.9375 0
0.3125 -0.9375 0
0.3125 -1 0
0.375 -1 0
0.3125 -0.9375 0
0.375 -0.9375 0
0.25 -0.9375 0
0.3125 -0.9375 0
0.25 -0.875 0
0.3125 -0.875 0
0.3125 -0.9375 0
0.375 -0.9375 0
0.3125 -0.875 0
0.375 -0.875 0
0.375 -1 0
0.4375 -1 0
0.375 -0.9375 0
0.4375 -0.9375 0
0.4375 -1 0
0.5 -1 0
0.4375 -0.9375 0
0.5 -0.9375 0
0.375 -0.9375 0
0.4375 -0.9375 0
0.375 -0.875 0
0.4375 -0.875 0
0.4375 -0.9375 0
0.5 -0.9375 0
0.4375 -0.875 0
0.5 -0.875 0
0 0 0
0.0625 0 0
0 0.0625 0
0.0625 0.0625 0
0.0625 0 0
0.125 0 0
0.0625 0.0625 0
0.125 0.0625 0
0 0.0625 0
0.0625 0.0625 0
0 0.125 0
0.0625 0.125 0
0.0625 0.0625 0
0.125 0.0625 0
0.0625 0.125 0
0.125 0.125 0
0.125 0 0
0.1875 0 0
0.125 0.0625 0
0.1875 0.0625 0
0.1875 0 0
0.25 0 0
0.1875 0.0625 0
0.25 0.0625 0
0.125 0.0625 0
0.1875 0.0625 0
0.125 0.125 0
0.1875 0.125 0
0.1875 0.0625 0
0.25 0.0625 0
0.1875 0.125 0
0.25 0.125 0
0.875 -0.625 0
0.9375 -0.625 0
0.875 -0.5625 0
0.9375 -0.5625 0
0.9375 -0.625 0
1 -0.625 0
0.9375 -0.5625 0
1 -0.5625 0
0.875 -0.5625 0
0.9375 -0.5625 0
0.875 -0.5 0
0.9375 -0.5 0
0.9375 -0.5625 0
1 -0.5625 0
0.9375 -0.5 0
1 -0.5 0
0.375 0 0
0.4375 0 0
0.375 0.0625 0
0.4375 0.0625 0
0.4375 0 0
0.5 0 0
0.4375 0.0625 0
0.5 0.0625 0
0.375 0.0625 0
0.4375 0.0625 0
0.375 0.125 0
0.4375 0.125 0
0.4375 0.0625 0
0.5 0.0625 0
0.4375 0.125 0
0.5 0.125 0
0.5 0 0
0.5625 0 0
0.5 0.0625 0
0.5625 0.0625 0
0.5 0.0625 0
0.5625 0.0625 0
0.5 0.125 0
0.5625 0.125 0
0.375 -0.625 0
0.4375 -0.625 0
0.375 -0.5625 0
0.4375 -0.5625 0
0.4375 -0.625 0
0.5 -0.625 0
0.4375 -0.5625 0
0.5 -0.5625 0
0.375 -0.5625 0
0.4375 -0.5625 0
0.375 -0.5 0
0.4375 -0.5 0
0.4375 -0.5625 0
0.5 -0.5625 0
0.4375 -0.5 0
0.5 -0.5 0
-0.375 0.125 0
-0.3125 0.125 0
-0.375 0.1875 0
-0.3125 0.1875 0
-0.3125 0.125 0
-0.25 0.125 0
-0.3125 0.1875 0
-0.25 0.1875 0
-0.375 0.1875 0
-0.3125 0.1875 0
-0.375 0.25 0
-0.3125 0.25 0
-0.3125 0.1875 0
-0.25 0.1875 0
-0.3125 0.25 0
-0.25 0.25 0
0 0.125 0
0.0625 0.125 0
0 0.1875 0
0.0625 0.1875 0
0.0625 0.125 0
0.125 0.125 0
0.0625 0.1875 0
0.125 0.1875 0
0 0.1875 0
0.0625 0.1875 0
0 0.25 0
0.0625 0.25 0
0.0625 0.1875 0
0.125 0.1875 0
0.0625 0.25 0
0.125 0.25 0
0.125 0.125 0
0.1875 0.125 0
0.125 0.1875 0
0.1875 0.1875 0
0.1875 0.125 0
0.25 0.125 0
0.1875 0.1875 0
0.25 0.1875 0
0.125 0.1875 0
0.1875 0.1875 0
0.125 0.25 0
0.1875 0.25 0
0.1875 0.1875 0
0.25 0.1875 0
0.1875 0.25 0
0.25 0.25 0
0.25 0.125 0
0.3125 0.125 0
0.25 0.1875 0
0.3125 0.1875 0
0.3125 0.125 0
0.375 0.125 0
0.3125 0.1875 0
0.375 0.1875 0
[...]
POINT_DATA 13744
SCALARS solution double 1
LOOKUP_TABLE default
1 0.92388 0.92388 0.712363 0.92388 0.707107 0.712363 0.394865 0.707107 0.382683 0.394865 0.00732946 0.382683 -1.83697e-16 0.00732946 -0.384868 -1.83697e-16 -0.382683 -0.384868 -0.713822 -0.382683 -0.707107 -0.713822 -0.933107 -0.707107 -0.92388 -0.933107 -1.00815 -0.92388 -1 -1.00815 -0.926524 -1 -0.92388 -0.926524 -0.707286 -0.92388 -0.707107 -0.707286 -0.381516 0.92388 0.712363 0.707107 0.389301 0.712363 0.394865 0.389301 0.00608791 0.394865 0.00732946 0.00608791 -0.378746 0.00732946 -0.384868 -0.378746 -0.701548 -0.384868 -0.713822 -0.701548 -0.923205 -0.713822 -0.933107 -0.923205 -1.00869 0.707107 0.389301 0.382683 0.00306145 0.389301 0.00608791 0.00306145 -0.38201 0.00608791 -0.378746 -0.38201 -0.709016 -0.378746 -0.701548 -0.709016 -0.928257 -0.701548 -0.923205 -0.928257 -1.00762 -0.923205 -1.00869 -1.00762 -0.929085 -1.00869 -0.927186 -0.929085 -0.707491 -0.927186 -0.711806 -0.707491 -0.384741 -0.711806 -0.382427 -0.384741 0.00273962 0.382683 0.00306145 -1.83697e-16 -0.380336 0.00306145 -0.38201 -0.380336 -0.710939 -0.38201 -0.709016 -0.710939 -0.929596 -0.709016 -0.928257 -0.929596 -1.011 -0.928257 -1.00762 -1.011 -0.943723 -1.00762 -0.929085 -0.943723 -0.730888 -0.929085 -0.707491 -0.730888 -0.409647 -0.707491 -0.384741 -0.409647 -0.0326649 -0.384741 0.00273962 -0.0326649 0.34142 0.00273962 0.398144 0.34142 0.655836 0.398144 0.72584 0.655836 0.865933 -1.83697e-16 -0.380336 -0.382683 -0.742424 -0.380336 -0.710939 -0.742424 -0.970835 -0.710939 -0.929596 -0.970835 -1.04442 -0.929596 -1.011 -1.04442 -0.970879 -1.011 -0.943723 -0.970879 -0.743162 -0.943723 -0.730888 -0.743162 -0.396548 -0.730888 -0.409647 -0.396548 0.00685443 -0.409647 -0.0326649 0.00685443 0.412439 -0.0326649 0.34142 0.412439 0.762857 0.34142 0.655836 0.762857 0.997566 0.655836 0.865933 0.997566 1.08125 0.865933 0.930085 1.08125 1.00291 0.930085 0.851707 1.00291 0.79667 -0.382683 -0.742424 -0.707107 -0.875653 -0.742424 -0.970835 -0.875653 -0.93396 -0.970835 -1.04442 -0.93396 -0.890003 -1.04442 -0.970879 -0.890003 -0.691841 -0.970879 -0.743162 -0.691841 -0.368628 -0.743162 -0.396548 -0.368628 0.00616263 -0.396548 0.00685443 0.00616263 0.381864 0.00685443 0.412439 0.381864 0.705864 0.412439 0.762857 0.705864 0.922102 0.762857 0.997566 0.922102 0.994802 0.997566 1.08125 0.994802 0.92442 1.08125 1.00291 0.92442 0.71542 -0.707107 -0.875653 -0.92388 -1.02392 -0.875653 -0.93396 -1.02392 -0.957408 -0.93396 -0.890003 -0.957408 -0.705369 -0.890003 -0.691841 -0.705369 -0.362409 -0.691841 -0.368628 -0.362409 0.00448829 -0.368628 0.00616263 0.00448829 0.381384 0.00616263 0.381864 0.381384 0.710726 0.381864 0.705864 0.710726 0.929546 0.705864 0.922102 0.929546 1.0025 0.922102 0.994802 1.0025 0.92335 0.994802 0.92442 0.92335 0.703103 -0.92388 -1.02392 -1 -0.924068 -1.02392 -0.957408 -0.924068 -0.711385 -0.957408 -0.705369 -0.711385 -0.411495 -0.705369 -0.362409 -0.411495 -0.031107 -0.362409 0.00448829 -0.031107 0.392802 0.00448829 0.381384 0.392802 0.736307 0.381384 0.710726 0.736307 0.935691 0.710726 0.929546 0.935691 1.01067 0.929546 1.0025 1.01067 0.926481 -1 -0.924068 -0.92388 -0.707526 -0.924068 -0.711385 -0.707526 -0.388033 -0.711385 -0.411495 -0.388033 -0.00727741 -0.411495 -0.031107 -0.00727741 0.380906 -0.031107 0.392802 0.380906 0.692197 0.392802 0.736307 0.692197 0.905691 0.736307 0.935691 0.905691 1.01881 0.935691 1.01067 1.01881 0.970303 0.70424 0.382627 0.387676 8.8244e-05 -0.92388 -0.707526 -0.707107 -0.38348 -0.707526 -0.388033 -0.38348 -0.00572125 -0.388033 -0.00727741 -0.00572125 0.376061 -0.00727741 0.380906 0.376061 0.712899 0.380906 0.692197 0.712899 0.929885 0.905691 1.01881 1.00232 0.92358 1.01881 0.970303 0.92358 0.711413 -0.707107 -0.38348 -0.382683 -0.000647668 -0.38348 -0.00572125 -0.000647668 0.375348 -0.00572125 0.376061 0.375348 0.70625 0.929885 1.00232 1.00107 0.935785 1.00232 0.92358 0.935785 0.740065 0.92358 0.711413 0.740065 0.399236 0.711413 0.386858 0.399236 -0.0222877 -0.382683 -0.000647668 6.12323e-17 0.376845 -0.000647668 0.375348 0.376845 0.6978 0.375348 0.70625 0.6978 0.932238 0.938669 1.00107 1.00857 0.924735 1.00107 0.935785 0.924735 0.743125 0.935785 0.740065 0.743125 0.428627 0.740065 0.399236 0.428627 0.0329161 0.399236 -0.0222877 0.0329161 -0.342709 6.12323e-17 0.376845 0.382683 0.712454 1.00857 0.924735 0.934606 0.718595 0.924735 0.743125 0.718595 0.419322 0.743125 0.428627 0.419322 0.000917893 0.428627 0.0329161 0.000917893 -0.398653 0.934606 0.718595 0.689301 0.43843 0.355777 0.224309 0 0 0.71542 0.557442 0.555503 0.384937 0.557442 0.374333 0.384937 0.198107 0.555503 0.384937 0.379975 0.191747 0.374333 0.215908 0.198107 -0.00697512 1.0025 0.977318 0.976348 0.925534 0.977318 0.92335 0.925534 0.83422 0.976348 0.925534 0.926481 0.833528 0.925534 0.83422 0.833528 0.70424 0.92335 0.831008 0.83422 0.703021 0.831008 0.703103 0.703021 0.551575 0.83422 0.703021 0.70424 0.552741 0.703021 0.551575 0.552741 0.382627 0.703103 0.553243 0.551575 0.38165 0.553243 0.379975 0.38165 0.192527 0.551575 0.38165 0.382627 0.191609 0.38165 0.192527 0.191609 -0.00383708 0.192527 -0.00350591 -0.00383708 -0.197298 -0.707107 -0.55557 -0.551655 -0.381717 -0.55557 -0.382683 -0.381717 -0.195511 -0.551655 -0.381717 -0.381516 -0.192292 -0.381717 -0.195511 -0.192292 0.00604441 -0.382683 -0.19509 -0.195511 -0.000383428 -0.19509 6.12323e-17 -0.000383428 0.193053 -0.195511 -0.000383428 0.00604441 0.197349 -0.000383428 0.193053 0.197349 0.381042 1.01067 0.985455 0.985569 0.931025 0.985455 0.926481 0.931025 0.840934 0.985569 0.931025 0.970303 0.858535 0.931025 0.840934 0.858535 0.716268 0.926481 0.833528 0.840934 0.711525 0.833528 0.70424 0.711525 0.555965 0.840934 0.711525 0.716268 0.563756 0.711525 0.555965 0.563756 0.387676 0.557255 0.307022 0.366541 0.207297 0.307022 0 0.207297 0 0.366541 0.207297 0.361386 0.184163 0.207297 0 0.184163 0 0.382627 0.191609 0.191517 -0.00218798 0.191609 -0.00383708 -0.00218798 -0.196352 0.191517 -0.00218798 8.8244e-05 -0.1967 -0.00218798 -0.196352 -0.1967 -0.386592 -0.00383708 -0.197298 -0.196352 -0.386247 -0.196352 -0.386247 -0.386592 -0.557982 0.72584 0.839262 0.800784 0.93526 0.839262 0.971505 0.93526 0.98301 0.800784 0.93526 0.865933 1.01118 0.93526 0.98301 1.01118 0.930085 0.692197 0.809387 0.831316 0.915937 0.809387 0.905691 0.915937 0.967341 0.831316 0.915937 0.929885 0.978471 0.915937 0.967341 0.978471 1.00232 0.970303 0.858535 0.832725 0.731719 0.858535 0.716268 0.731719 0.597799 0.832725 0.731719 0.711413 0.566267 0.731719 0.597799 0.566267 0.386858 0.716268 0.563756 0.597799 0.405041 0.563756 0.387676 0.405041 0.196414 0.597799 0.405041 0.386858 0.209855 0.405041 0.196414 0.209855 0.0285961 0.387676 0.196595 0.196414 0.0021374 0.196595 8.8244e-05 0.0021374 -0.191509 0.196414 0.0021374 0.0285961 -0.17671 0.0021374 -0.191509 -0.17671 -0.380642 8.8244e-05 -0.1967 -0.191509 -0.382294 -0.1967 -0.386592 -0.382294 -0.556394 -0.191509 -0.382294 -0.380642 -0.555334 -0.382294 -0.556394 -0.555334 -0.704689 -0.556394 -0.708124 -0.704689 -0.82865 -0.708124 -0.834501 -0.82865 -0.925183 -0.834501 -0.926318 -0.925183 -0.981804 0.376061 0.557072 0.565578 0.711314 0.557072 0.712899 0.711314 0.833257 0.565578 0.711314 0.70625 0.841557 0.711314 0.833257 0.841557 0.938669 0.712899 0.835852 0.833257 0.929462 0.835852 0.929885 0.929462 0.987917 0.833257 0.929462 0.938669 0.982661 0.929462 0.987917 0.982661 1.00107 0.386858 0.209855 0.188062 -0.00827649 0.209855 0.0285961 -0.00827649 -0.198656 0.188062 -0.00827649 -0.0222877 -0.217716 -0.00827649 -0.198656 -0.217716 -0.397701 0.0285961 -0.17671 -0.198656 -0.370736 -0.17671 -0.380642 -0.370736 -0.532501 -0.198656 -0.370736 -0.397701 -0.571272 -0.370736 -0.532501 -0.571272 -0.720115 -0.380642 -0.555334 -0.532501 -0.691593 -0.555334 -0.704689 -0.691593 -0.82794 -0.532501 -0.691593 -0.720115 -0.830941 -0.691593 -0.82794 -0.830941 -0.91447 -0.704689 -0.82865 -0.82794 -0.917054 -0.82865 -0.925183 -0.917054 -0.97829 0.70625 0.841557 0.839319 0.930716 0.841557 0.938669 0.930716 0.985735 0.839319 0.930716 0.932238 0.9916 0.930716 0.985735 0.9916 1.00857 -0.0222877 -0.217716 -0.187039 -0.382279 -0.217716 -0.397701 -0.382279 -0.565831 -0.187039 -0.382279 -0.342709 -0.509694 -0.382279 -0.565831 -0.509694 -0.663187 -0.397701 -0.571272 -0.565831 -0.714225 -0.571272 -0.720115 -0.714225 -0.82645 -0.565831 -0.714225 -0.663187 -0.791313 -0.714225 -0.82645 -0.791313 -0.887432 -0.720115 -0.830941 -0.82645 -0.911513 -0.830941 -0.91447 -0.911513 -0.958477 -0.82645 -0.911513 -0.887432 -0.938869 -0.911513 -0.958477 -0.938869 -0.947476 0.6978 0.824258 0.838902 0.948448 0.824258 0.932238 0.948448 1.00798 0.838902 0.948448 0.952433 1.01942 0.948448 1.00798 1.01942 1.02235 0.932238 0.9916 1.00798 1.02615 0.9916 1.00857 1.02615 1.01104 1.00798 1.02615 1.02235 1.00506 1.02615 1.01104 1.00506 0.934606 0.0329161 -0.217181 -0.166482 -0.344453 -0.217181 -0.342709 -0.344453 -0.522873 -0.166482 -0.344453 -0.398653 -0.564407 -0.344453 -0.522873 -0.564407 -0.72299 -0.342709 -0.509694 -0.522873 -0.686958 -0.509694 -0.663187 -0.686958 -0.812642 -0.522873 -0.686958 -0.72299 -0.842721 -0.686958 -0.812642 -0.842721 -0.940734 -0.663187 -0.791313 -0.812642 -0.913114 -0.791313 -0.887432 -0.913114 -0.988794 -0.812642 -0.913114 -0.940734 -1.00384 -0.913114 -0.988794 -1.00384 -1.01909 -0.887432 -0.938869 -0.988794 -1.03244 -0.938869 -0.947476 -1.03244 -1.03739 -0.988794 -1.03244 -1.01909 -1.0014 -1.03244 -1.03739 -1.0014 -0.956189 0.712454 0.82251 0.788781 0.88188 0.952433 1.01942 1.00716 1.01178 1.01942 1.02235 1.01178 1.00767 1.00716 1.01178 0.971348 0.960937 1.01178 1.00767 0.960937 0.941725 1.02235 1.00506 1.00767 0.958798 1.00506 0.934606 0.958798 0.83101 1.00767 0.958798 0.941725 0.831893 0.958798 0.83101 0.831893 0.689301 0.000917893 -0.181546 -0.184174 -0.384389 -0.181546 -0.398653 -0.384389 -0.564566 -0.184174 -0.384389 -0.368708 -0.553767 -0.384389 -0.564566 -0.553767 -0.696954 -0.398653 -0.564407 -0.564566 -0.718301 -0.564407 -0.72299 -0.718301 -0.843112 -0.564566 -0.718301 -0.696954 -0.826046 -0.842721 -0.940734 -0.93918 -0.995398 -0.93918 -0.995398 -0.97813 -0.996069 -0.940734 -1.00384 -0.995398 -1.00942 -1.00384 -1.01909 -1.00942 -0.991901 -0.995398 -1.00942 -0.996069 -0.977869 -1.01909 -1.0014 -0.991901 -0.934947 -1.0014 -0.956189 -0.934947 -0.831802 -0.991901 -0.934947 -0.920996 -0.827092 -0.934947 -0.831802 -0.827092 -0.703292 -0.956189 -0.880684 -0.831802 -0.700059 -0.880684 -0.777453 -0.700059 -0.55296 0.972517 0.947219 0.85204 0.91564 0.971348 0.960937 0.947219 0.936813 0.941725 0.831893 0.838349 0.66611 0.831893 0.689301 0.66611 0.508125 0.838349 0.66611 0.73466 0.525669 0.66611 0.508125 0.525669 0.355777 -0.829569 -0.701823 -0.706803 -0.549512 -0.701823 -0.535739 -0.549512 -0.348729 -0.550419 -0.388498 -0.371982 -0.207253 -0.535739 -0.371982 -0.348729 -0.196925 -0.371982 -0.207253 -0.196925 -0.0256437 -0.388498 -0.196609 -0.207253 -0.00128804 -0.549512 -0.348729 -0.371638 -0.145221 -0.348729 -0.196925 -0.145221 -0.0585795 6.12323e-17 0.19509 0.193053 0.380609 0.19509 0.382683 0.380609 0.555021 0.382683 0.55557 0.555021 0.70764 -0.933107 -0.984412 -0.983018 -1.01065 -0.984412 -1.00815 -1.01065 -0.991869 -0.983018 -1.01065 -1.00869 -0.997035 -1.01065 -0.991869 -0.997035 -0.927186 -1.00815 -0.983892 -0.991869 -0.927575 -0.983892 -0.926524 -0.927575 -0.831753 -0.991869 -0.927575 -0.927186 -0.840302 -0.927575 -0.831753 -0.840302 -0.711806 -0.926524 -0.829091 -0.831753 -0.70963 -0.829091 -0.707286 -0.70963 -0.556335 -0.831753 -0.70963 -0.711806 -0.56361 -0.70963 -0.556335 -0.56361 -0.382427 -0.707286 -0.554511 -0.556335 -0.379219 -0.554511 -0.381516 -0.379219 -0.191218 -0.556335 -0.379219 -0.382427 -0.194774 -0.379219 -0.191218 -0.194774 0.00368141 -0.381516 -0.192292 -0.191218 0.00604513 -0.192292 0.00604441 0.00604513 0.19992 -0.191218 0.00604513 0.00368141 0.204922 0.00604513 0.19992 0.204922 0.390861 0.00604441 0.197349 0.19992 0.383276 0.19992 0.383276 0.390861 0.553734 0.383276 0.55581 0.553734 0.705756 0.55581 0.709717 0.705756 0.837028 0.709717 0.83314 0.837028 0.93051 0.83314 0.924076 0.93051 0.981401 -0.382427 -0.194774 -0.199276 -0.0043478 -0.194774 0.00368141 -0.0043478 0.203631 -0.199276 -0.0043478 0.00273962 0.186256 -0.0043478 0.203631 0.186256 0.398144 0.00368141 0.204922 0.203631 0.3884 0.204922 0.390861 0.3884 0.565164 0.203631 0.3884 0.398144 0.546404 0.3884 0.565164 0.546404 0.72584 0.390861 0.553734 0.565164 0.703 0.553734 0.705756 0.703 0.8344 0.565164 0.703 0.72584 0.839262 0.705756 0.837028 0.8344 0.930487 0.837028 0.93051 0.930487 0.98153 0.79667 0.681381 0.551585 0.378219 0.92442 0.830475 0.829744 0.705338 0.830475 0.71542 0.705338 0.555503 0.829744 0.705338 0.703103 0.553243 0.705338 0.555503 0.553243 0.379975 0.419322 0.222618 0.217836 0.00594815 0.222618 0.000917893 0.00594815 -0.184174 -0.777453 -0.645214 -0.55296 -0.391965 -0.645214 -0.48364 -0.391965 -0.214492 0.73466 0.525669 0.591476 0.328869 0.525669 0.355777 0.328869 0.200651 0.328869 0.200651 0 0 0.971505 1.01236 0.98301 0.995371 1.01236 1.02098 0.995371 0.944649 0.98301 0.995371 0.930085 1.00448 0.995371 0.944649 1.00448 0.851707 0.944649 0.881065 0.851707 0.772737 0.881065 0.756271 0.772737 0.670237 0.756271 0.582202 0.670237 0.52692 0.582202 0.366541 0.52692 0.361386 0.670237 0.52692 0.653152 0.53317 0.52692 0.361386 0.53317 0.360278 1.00291 0.772878 0.834127 0.721595 0.772878 0.79667 0.721595 0.551585 0.834127 0.721595 0.71542 0.557442 0.721595 0.551585 0.557442 0.374333 -0.91447 -0.989033 -0.958477 -0.959461 -0.989033 -1.01344 -0.959461 -0.928293 -0.958477 -0.959461 -0.947476 -0.922757 -0.959461 -0.928293 -0.922757 -0.863271 -0.928293 -0.872917 -0.863271 -0.769033 -0.872917 -0.753999 -0.769033 -0.655207 -0.753999 -0.580692 -0.655207 -0.51286 -0.580692 -0.368631 -0.51286 -0.361901 -0.947476 -0.922757 -1.03739 -0.99474 -0.922757 -0.863271 -0.99474 -0.910751 -1.03739 -0.99474 -0.956189 -0.880684 -0.99474 -0.910751 -0.880684 -0.777453 -0.655207 -0.51286 -0.651437 -0.532471 -0.51286 -0.361901 -0.532471 -0.354767 -0.361901 -0.179352 -0.354767 -0.170389 -0.179352 0 -0.170389 0 0.707107 0.784419 0.83147 0.808967 0.83147 0.808967 0.92388 0.659864 0.43843 0.276368 0.345099 0.0122797 0.851707 0.772737 0.859758 0.776667 0.772737 0.670237 0.776667 0.653152 0.859758 0.776667 0.79667 0.681381 0.776667 0.653152 0.681381 0.525833 0.361386 0.184163 0.360278 0.17614 0.184163 0 0.17614 0 0.360278 0.17614 0.359201 0.187044 0.17614 0 0.187044 0 -0.555839 -0.307671 -0.368631 -0.206829 -0.307671 0 -0.206829 0 -0.368631 -0.206829 -0.361901 -0.179352 -0.206829 0 -0.179352 0 0.376845 0.542327 0.566414 0.715834 0.542327 0.6978 0.715834 0.838902 0.566414 0.715834 0.712454 0.82251 0.715834 0.838902 0.82251 0.952433 -0.863271 -0.769033 -0.910751 -0.797538 -0.769033 -0.655207 -0.797538 -0.651437 -0.910751 -0.797538 -0.777453 -0.645214 -0.797538 -0.651437 -0.645214 -0.48364 0.382683 0.535724 0.55557 0.697634 0.535724 0.712454 0.697634 0.788781 0.55557 0.697634 0.707107 0.784419 0.697634 0.788781 0.784419 0.858725 0.718595 0.57743 0.542098 0.407894 0.57743 0.419322 0.407894 0.217836 0.542098 0.407894 0.43843 0.276368 0.407894 0.217836 0.276368 0.0119796 0.689301 0.532824 0.508125 0.410885 0.532824 0.43843 0.410885 0.345099 0.508125 0.410885 0.355777 0.259551 0.410885 0.345099 0.259551 0.224309 0.92388 0.659864 0.980785 0.373048 0.659864 0.362947 0.373048 0.127446 0.980785 0.373048 0 0 0.373048 0.127446 0 0 0.224309 -0.144491 -0.340097 -0.147381 -0.144491 0.0529695 -0.147381 0.174098 -0.340097 -0.147381 0 0 -0.147381 0.174098 0 0 0.384937 0.292051 0.287932 0.194908 0.292051 0.198107 0.194908 0.0994378 0.287932 0.194908 0.191747 0.0950526 0.194908 0.0994378 0.0950526 -0.00220833 0.215908 0.11487 0.0968219 0.00150142 0.11487 0.0135017 0.00150142 -0.0881852 0.0968219 0.00150142 -0.00697512 -0.104184 0.00150142 -0.0881852 -0.104184 -0.19856 0.198107 0.0985138 0.0994378 0.0020854 0.0985138 -0.00697512 0.0020854 -0.0955064 0.0994378 0.0020854 -0.00220833 -0.098342 0.0020854 -0.0955064 -0.098342 -0.193915 -0.00697512 -0.104184 -0.0955064 -0.195347 -0.0955064 -0.195347 -0.193915 -0.288254 -0.195347 -0.295642 -0.288254 -0.380689 0.0135017 -0.0768988 -0.0881852 -0.188074 0.905308 0.813544 0.600561 0.492814 0.813544 0.662002 0.492814 0.374255 0.600561 0.492814 0.617078 0.513486 0.492814 0.374255 0.513486 0.3722 0.379975 0.286319 0.286222 0.191576 0.286319 0.191747 0.191576 0.0949051 0.286222 0.191576 0.192527 0.0947606 0.191576 0.0949051 0.0947606 -0.00350591 0.191747 0.0950526 0.0949051 -0.00365736 0.0950526 -0.00220833 -0.00365736 -0.101621 0.0949051 -0.00365736 -0.00350591 -0.101746 -0.00365736 -0.101621 -0.101746 -0.198632 0.662002 0.417784 0.374255 0.228333 0.417784 0 0.228333 0 0.374255 0.228333 0.3722 0.229225 0.228333 0 0.229225 0 -0.00350591 -0.101746 -0.101401 -0.198558 -0.101746 -0.198632 -0.198558 -0.293916 -0.101401 -0.198558 -0.197298 -0.292972 -0.198558 -0.293916 -0.292972 -0.385988 -0.00220833 -0.098342 -0.101621 -0.198191 -0.098342 -0.193915 -0.198191 -0.292339 -0.101621 -0.198191 -0.198632 -0.29389 -0.198191 -0.292339 -0.29389 -0.386186 -0.193915 -0.288254 -0.292339 -0.383127 -0.292339 -0.383127 -0.386186 -0.474425 -0.198632 -0.29389 -0.293916 -0.386327 -0.29389 -0.386186 -0.386327 -0.474959 -0.293916 -0.386327 -0.385988 -0.474826 -0.386327 -0.474959 -0.474826 -0.559143 -0.386186 -0.474425 -0.474959 -0.559193 -0.474959 -0.559193 -0.559143 -0.63811 0.617078 0.513486 0.618264 0.576257 0.513486 0.3722 0.576257 0.364526 0.618264 0.576257 0.557255 0.729803 0.576257 0.364526 0.729803 0.307022 0.3722 0.229225 0.364526 0.328883 0.229225 0 0.328883 0 0.364526 0.328883 0.307022 0.632269 0.328883 0 0.632269 0 -0.197298 -0.292972 -0.294672 -0.38623 -0.292972 -0.385988 -0.38623 -0.473886 -0.294672 -0.38623 -0.386247 -0.475481 -0.38623 -0.473886 -0.475481 -0.559566 0.82251 0.843922 0.895131 0.92596 0.843922 0.952433 0.92596 0.94905 0.895131 0.92596 0.88188 0.932217 0.92596 0.94905 0.932217 1.00716 -0.386247 -0.475481 -0.474093 -0.558241 -0.475481 -0.559566 -0.558241 -0.637496 -0.474093 -0.558241 -0.557982 -0.635954 -0.558241 -0.637496 -0.635954 -0.709166 -0.385988 -0.474826 -0.473886 -0.558184 -0.474826 -0.559143 -0.558184 -0.637616 -0.473886 -0.558184 -0.559566 -0.637719 -0.558184 -0.637616 -0.637719 -0.709907 -0.559143 -0.63811 -0.637616 -0.710717 -0.559566 -0.637719 -0.637496 -0.711017 -0.637719 -0.709907 -0.711017 -0.777128 -0.637496 -0.711017 -0.709166 -0.775886 -0.711017 -0.777128 -0.775886 -0.835021 -0.777128 -0.835002 -0.835021 -0.885923 0.788781 0.837088 0.900183 0.871564 0.837088 0.88188 0.871564 0.870742 0.900183 0.871564 0.858725 0.838962 0.871564 0.870742 0.838962 0.923255 -0.386592 -0.475012 -0.473693 -0.558177 -0.475012 -0.557982 -0.558177 -0.637248 -0.473693 -0.558177 -0.556394 -0.634707 -0.558177 -0.637248 -0.634707 -0.708124 -0.557982 -0.635954 -0.637248 -0.709768 -0.635954 -0.709166 -0.709768 -0.77517 -0.637248 -0.709768 -0.708124 -0.774586 -0.709768 -0.77517 -0.774586 -0.834501 -0.709166 -0.775886 -0.77517 -0.833787 -0.775886 -0.835021 -0.833787 -0.884456 -0.77517 -0.833787 -0.834501 -0.885506 -0.833787 -0.884456 -0.885506 -0.926318 -0.835021 -0.885923 -0.884456 -0.926827 -0.884456 -0.926827 -0.926318 -0.959339 -0.926318 -0.959339 -0.960681 -0.984009 -0.959339 -0.983491 -0.984009 -0.998014 -0.960681 -0.984009 -0.981804 -0.997466 -0.718301 -0.763065 -0.773982 -0.836073 -0.763065 -0.843112 -0.836073 -0.883614 -0.773982 -0.836073 -0.826046 -0.87782 -0.836073 -0.883614 -0.87782 -0.919568 -0.72299 -0.753971 -0.781912 -0.850055 -0.753971 -0.842721 -0.850055 -0.899014 -0.781912 -0.850055 -0.843112 -0.89569 -0.850055 -0.899014 -0.89569 -0.93918 -0.843112 -0.89569 -0.883614 -0.92426 -0.89569 -0.93918 -0.92426 -0.958263 -0.883614 -0.92426 -0.919568 -0.955646 -0.92426 -0.958263 -0.955646 -0.97813 -1.00942 -0.978472 -0.990683 -0.979012 -0.978472 -0.991901 -0.979012 -0.950829 -0.990683 -0.979012 -0.977869 -0.955539 -0.979012 -0.950829 -0.955539 -0.920996 -0.831802 -0.762515 -0.772326 -0.