# vtk DataFile Version 3.0
#This file was generated by the deal.II library on 2020/5/26 at 20:14:54
ASCII
DATASET UNSTRUCTURED_GRID

POINTS 4096 double
-1 -1 0
-0.9375 -1 0
-1 -0.9375 0
-0.9375 -0.9375 0
-0.9375 -1 0
-0.875 -1 0
-0.9375 -0.9375 0
-0.875 -0.9375 0
-1 -0.9375 0
-0.9375 -0.9375 0
-1 -0.875 0
-0.9375 -0.875 0
-0.9375 -0.9375 0
-0.875 -0.9375 0
-0.9375 -0.875 0
-0.875 -0.875 0
-0.875 -1 0
-0.8125 -1 0
-0.875 -0.9375 0
-0.8125 -0.9375 0
-0.8125 -1 0
-0.75 -1 0
-0.8125 -0.9375 0
-0.75 -0.9375 0
-0.875 -0.9375 0
-0.8125 -0.9375 0
-0.875 -0.875 0
-0.8125 -0.875 0
-0.8125 -0.9375 0
-0.75 -0.9375 0
-0.8125 -0.875 0
-0.75 -0.875 0
-0.75 -1 0
-0.6875 -1 0
-0.75 -0.9375 0
-0.6875 -0.9375 0
-0.6875 -1 0
-0.625 -1 0
-0.6875 -0.9375 0
-0.625 -0.9375 0
-0.75 -0.9375 0
-0.6875 -0.9375 0
-0.75 -0.875 0
-0.6875 -0.875 0
-0.6875 -0.9375 0
-0.625 -0.9375 0
-0.6875 -0.875 0
-0.625 -0.875 0
-0.625 -1 0
-0.5625 -1 0
-0.625 -0.9375 0
-0.5625 -0.9375 0
-0.5625 -1 0
-0.5 -1 0
-0.5625 -0.9375 0
-0.5 -0.9375 0
-0.625 -0.9375 0
-0.5625 -0.9375 0
-0.625 -0.875 0
-0.5625 -0.875 0
-0.5625 -0.9375 0
-0.5 -0.9375 0
-0.5625 -0.875 0
-0.5 -0.875 0
-0.5 -1 0
-0.4375 -1 0
-0.5 -0.9375 0
-0.4375 -0.9375 0
-0.4375 -1 0
-0.375 -1 0
-0.4375 -0.9375 0
-0.375 -0.9375 0
-0.5 -0.9375 0
-0.4375 -0.9375 0
-0.5 -0.875 0
-0.4375 -0.875 0
-0.4375 -0.9375 0
-0.375 -0.9375 0
-0.4375 -0.875 0
-0.375 -0.875 0
-0.375 -1 0
-0.3125 -1 0
-0.375 -0.9375 0
-0.3125 -0.9375 0
-0.3125 -1 0
-0.25 -1 0
-0.3125 -0.9375 0
-0.25 -0.9375 0
-0.375 -0.9375 0
-0.3125 -0.9375 0
-0.375 -0.875 0
-0.3125 -0.875 0
-0.3125 -0.9375 0
-0.25 -0.9375 0
-0.3125 -0.875 0
-0.25 -0.875 0
-0.25 -1 0
-0.1875 -1 0
-0.25 -0.9375 0
-0.1875 -0.9375 0
-0.1875 -1 0
-0.125 -1 0
-0.1875 -0.9375 0
-0.125 -0.9375 0
-0.25 -0.9375 0
-0.1875 -0.9375 0
-0.25 -0.875 0
-0.1875 -0.875 0
-0.1875 -0.9375 0
-0.125 -0.9375 0
-0.1875 -0.875 0
-0.125 -0.875 0
-0.125 -1 0
-0.0625 -1 0
-0.125 -0.9375 0
-0.0625 -0.9375 0
-0.0625 -1 0
0 -1 0
-0.0625 -0.9375 0
0 -0.9375 0
-0.125 -0.9375 0
-0.0625 -0.9375 0
-0.125 -0.875 0
-0.0625 -0.875 0
-0.0625 -0.9375 0
0 -0.9375 0
-0.0625 -0.875 0
0 -0.875 0
0 -1 0
0.0625 -1 0
0 -0.9375 0
0.0625 -0.9375 0
0.0625 -1 0
0.125 -1 0
0.0625 -0.9375 0
0.125 -0.9375 0
0 -0.9375 0
0.0625 -0.9375 0
0 -0.875 0
0.0625 -0.875 0
0.0625 -0.9375 0
0.125 -0.9375 0
0.0625 -0.875 0
0.125 -0.875 0
0.125 -1 0
0.1875 -1 0
0.125 -0.9375 0
0.1875 -0.9375 0
0.1875 -1 0
0.25 -1 0
0.1875 -0.9375 0
0.25 -0.9375 0
0.125 -0.9375 0
0.1875 -0.9375 0
0.125 -0.875 0
0.1875 -0.875 0
0.1875 -0.9375 0
0.25 -0.9375 0
0.1875 -0.875 0
0.25 -0.875 0
0.25 -1 0
0.3125 -1 0
0.25 -0.9375 0
0.3125 -0.9375 0
0.3125 -1 0
0.375 -1 0
0.3125 -0.9375 0
0.375 -0.9375 0
0.25 -0.9375 0
0.3125 -0.9375 0
0.25 -0.875 0
0.3125 -0.875 0
0.3125 -0.9375 0
0.375 -0.9375 0
0.3125 -0.875 0
0.375 -0.875 0
0.375 -1 0
0.4375 -1 0
0.375 -0.9375 0
0.4375 -0.9375 0
0.4375 -1 0
0.5 -1 0
0.4375 -0.9375 0
0.5 -0.9375 0
0.375 -0.9375 0
0.4375 -0.9375 0
0.375 -0.875 0
0.4375 -0.875 0
0.4375 -0.9375 0
0.5 -0.9375 0
0.4375 -0.875 0
0.5 -0.875 0
0.5 -1 0
0.5625 -1 0
0.5 -0.9375 0
0.5625 -0.9375 0
0.5625 -1 0
0.625 -1 0
0.5625 -0.9375 0
0.625 -0.9375 0
0.5 -0.9375 0
0.5625 -0.9375 0
0.5 -0.875 0
0.5625 -0.875 0
0.5625 -0.9375 0
0.625 -0.9375 0
0.5625 -0.875 0
0.625 -0.875 0
0.625 -1 0
0.6875 -1 0
0.625 -0.9375 0
0.6875 -0.9375 0
0.6875 -1 0
0.75 -1 0
0.6875 -0.9375 0
0.75 -0.9375 0
0.625 -0.9375 0
0.6875 -0.9375 0
0.625 -0.875 0
0.6875 -0.875 0
0.6875 -0.9375 0
0.75 -0.9375 0
0.6875 -0.875 0
0.75 -0.875 0
0.75 -1 0
0.8125 -1 0
0.75 -0.9375 0
0.8125 -0.9375 0
0.8125 -1 0
0.875 -1 0
0.8125 -0.9375 0
0.875 -0.9375 0
0.75 -0.9375 0
0.8125 -0.9375 0
0.75 -0.875 0
0.8125 -0.875 0
0.8125 -0.9375 0
0.875 -0.9375 0
0.8125 -0.875 0
0.875 -0.875 0
0.875 -1 0
0.9375 -1 0
0.875 -0.9375 0
0.9375 -0.9375 0
0.9375 -1 0
1 -1 0
0.9375 -0.9375 0
1 -0.9375 0
0.875 -0.9375 0
0.9375 -0.9375 0
0.875 -0.875 0
0.9375 -0.875 0
0.9375 -0.9375 0
1 -0.9375 0
0.9375 -0.875 0
1 -0.875 0
-1 -0.875 0
-0.9375 -0.875 0
-1 -0.8125 0
-0.9375 -0.8125 0
-0.9375 -0.875 0
-0.875 -0.875 0
-0.9375 -0.8125 0
-0.875 -0.8125 0
-1 -0.8125 0
-0.9375 -0.8125 0
-1 -0.75 0
-0.9375 -0.75 0
-0.9375 -0.8125 0
-0.875 -0.8125 0
-0.9375 -0.75 0
-0.875 -0.75 0
-0.875 -0.875 0
-0.8125 -0.875 0
-0.875 -0.8125 0
-0.8125 -0.8125 0
-0.8125 -0.875 0
-0.75 -0.875 0
-0.8125 -0.8125 0
-0.75 -0.8125 0
-0.875 -0.8125 0
-0.8125 -0.8125 0
-0.875 -0.75 0
-0.8125 -0.75 0
-0.8125 -0.8125 0
-0.75 -0.8125 0
-0.8125 -0.75 0
-0.75 -0.75 0
-0.75 -0.875 0
-0.6875 -0.875 0
-0.75 -0.8125 0
-0.6875 -0.8125 0
-0.6875 -0.875 0
-0.625 -0.875 0
-0.6875 -0.8125 0
-0.625 -0.8125 0
-0.75 -0.8125 0
-0.6875 -0.8125 0
-0.75 -0.75 0
-0.6875 -0.75 0
-0.6875 -0.8125 0
-0.625 -0.8125 0
-0.6875 -0.75 0
-0.625 -0.75 0
-0.625 -0.875 0
-0.5625 -0.875 0
-0.625 -0.8125 0
-0.5625 -0.8125 0
-0.5625 -0.875 0
-0.5 -0.875 0
-0.5625 -0.8125 0
-0.5 -0.8125 0
-0.625 -0.8125 0
-0.5625 -0.8125 0
-0.625 -0.75 0
-0.5625 -0.75 0
-0.5625 -0.8125 0
-0.5 -0.8125 0
-0.5625 -0.75 0
-0.5 -0.75 0
-0.5 -0.875 0
-0.4375 -0.875 0
-0.5 -0.8125 0
-0.4375 -0.8125 0
-0.4375 -0.875 0
-0.375 -0.875 0
-0.4375 -0.8125 0
-0.375 -0.8125 0
-0.5 -0.8125 0
-0.4375 -0.8125 0
-0.5 -0.75 0
-0.4375 -0.75 0
-0.4375 -0.8125 0
-0.375 -0.8125 0
-0.4375 -0.75 0
-0.375 -0.75 0
-0.375 -0.875 0
-0.3125 -0.875 0
-0.375 -0.8125 0
-0.3125 -0.8125 0
-0.3125 -0.875 0
-0.25 -0.875 0
-0.3125 -0.8125 0
-0.25 -0.8125 0
-0.375 -0.8125 0
-0.3125 -0.8125 0
-0.375 -0.75 0
-0.3125 -0.75 0
-0.3125 -0.8125 0
-0.25 -0.8125 0
-0.3125 -0.75 0
-0.25 -0.75 0
-0.25 -0.875 0
-0.1875 -0.875 0
-0.25 -0.8125 0
-0.1875 -0.8125 0
-0.1875 -0.875 0
-0.125 -0.875 0
-0.1875 -0.8125 0
-0.125 -0.8125 0
-0.25 -0.8125 0
-0.1875 -0.8125 0
-0.25 -0.75 0
-0.1875 -0.75 0
-0.1875 -0.8125 0
-0.125 -0.8125 0
-0.1875 -0.75 0
-0.125 -0.75 0
-0.125 -0.875 0
-0.0625 -0.875 0
-0.125 -0.8125 0
-0.0625 -0.8125 0
-0.0625 -0.875 0
0 -0.875 0
-0.0625 -0.8125 0
0 -0.8125 0
-0.125 -0.8125 0
-0.0625 -0.8125 0
-0.125 -0.75 0
-0.0625 -0.75 0
-0.0625 -0.8125 0
0 -0.8125 0
-0.0625 -0.75 0
0 -0.75 0
0 -0.875 0
0.0625 -0.875 0
0 -0.8125 0
0.0625 -0.8125 0
0.0625 -0.875 0
0.125 -0.875 0
0.0625 -0.8125 0
0.125 -0.8125 0
0 -0.8125 0
0.0625 -0.8125 0
0 -0.75 0
0.0625 -0.75 0
0.0625 -0.8125 0
0.125 -0.8125 0
0.0625 -0.75 0
0.125 -0.75 0
0.125 -0.875 0
0.1875 -0.875 0
0.125 -0.8125 0
0.1875 -0.8125 0
0.1875 -0.875 0
0.25 -0.875 0
0.1875 -0.8125 0
0.25 -0.8125 0
0.125 -0.8125 0
0.1875 -0.8125 0
0.125 -0.75 0
0.1875 -0.75 0
0.1875 -0.8125 0
0.25 -0.8125 0
0.1875 -0.75 0
0.25 -0.75 0
0.25 -0.875 0
0.3125 -0.875 0
0.25 -0.8125 0
0.3125 -0.8125 0
0.3125 -0.875 0
0.375 -0.875 0
0.3125 -0.8125 0
0.375 -0.8125 0
0.25 -0.8125 0
0.3125 -0.8125 0
0.25 -0.75 0
0.3125 -0.75 0
0.3125 -0.8125 0
0.375 -0.8125 0
0.3125 -0.75 0
0.375 -0.75 0
0.375 -0.875 0
0.4375 -0.875 0
0.375 -0.8125 0
0.4375 -0.8125 0
0.4375 -0.875 0
0.5 -0.875 0
0.4375 -0.8125 0
0.5 -0.8125 0
0.375 -0.8125 0
0.4375 -0.8125 0
0.375 -0.75 0
0.4375 -0.75 0
0.4375 -0.8125 0
0.5 -0.8125 0
0.4375 -0.75 0
0.5 -0.75 0
0.5 -0.875 0
0.5625 -0.875 0
0.5 -0.8125 0
0.5625 -0.8125 0
0.5625 -0.875 0
0.625 -0.875 0
0.5625 -0.8125 0
0.625 -0.8125 0
0.5 -0.8125 0
0.5625 -0.8125 0
0.5 -0.75 0
0.5625 -0.75 0
0.5625 -0.8125 0
0.625 -0.8125 0
0.5625 -0.75 0
0.625 -0.75 0
0.625 -0.875 0
0.6875 -0.875 0
0.625 -0.8125 0
0.6875 -0.8125 0
0.6875 -0.875 0
0.75 -0.875 0
0.6875 -0.8125 0
0.75 -0.8125 0
0.625 -0.8125 0
0.6875 -0.8125 0
0.625 -0.75 0
0.6875 -0.75 0
0.6875 -0.8125 0
0.75 -0.8125 0
0.6875 -0.75 0
0.75 -0.75 0
0.75 -0.875 0
0.8125 -0.875 0
0.75 -0.8125 0
0.8125 -0.8125 0
0.8125 -0.875 0
0.875 -0.875 0
0.8125 -0.8125 0
0.875 -0.8125 0
0.75 -0.8125 0
0.8125 -0.8125 0
0.75 -0.75 0
0.8125 -0.75 0
0.8125 -0.8125 0
0.875 -0.8125 0
0.8125 -0.75 0
0.875 -0.75 0
0.875 -0.875 0
0.9375 -0.875 0
0.875 -0.8125 0
0.9375 -0.8125 0
0.9375 -0.875 0
1 -0.875 0
0.9375 -0.8125 0
1 -0.8125 0
0.875 -0.8125 0
0.9375 -0.8125 0
0.875 -0.75 0
0.9375 -0.75 0
0.9375 -0.8125 0
1 -0.8125 0
0.9375 -0.75 0
1 -0.75 0
-1 -0.75 0
-0.9375 -0.75 0
-1 -0.6875 0
-0.9375 -0.6875 0
-0.9375 -0.75 0
-0.875 -0.75 0
-0.9375 -0.6875 0
-0.875 -0.6875 0
-1 -0.6875 0
-0.9375 -0.6875 0
-1 -0.625 0
-0.9375 -0.625 0
-0.9375 -0.6875 0
-0.875 -0.6875 0
-0.9375 -0.625 0
-0.875 -0.625 0
-0.875 -0.75 0
-0.8125 -0.75 0
-0.875 -0.6875 0
-0.8125 -0.6875 0
-0.8125 -0.75 0
-0.75 -0.75 0
-0.8125 -0.6875 0
-0.75 -0.6875 0
-0.875 -0.6875 0
-0.8125 -0.6875 0
-0.875 -0.625 0
-0.8125 -0.625 0
-0.8125 -0.6875 0
-0.75 -0.6875 0
-0.8125 -0.625 0
-0.75 -0.625 0
-0.75 -0.75 0
-0.6875 -0.75 0
-0.75 -0.6875 0
-0.6875 -0.6875 0
-0.6875 -0.75 0
-0.625 -0.75 0
-0.6875 -0.6875 0
-0.625 -0.6875 0
-0.75 -0.6875 0
-0.6875 -0.6875 0
-0.75 -0.625 0
-0.6875 -0.625 0
-0.6875 -0.6875 0
-0.625 -0.6875 0
-0.6875 -0.625 0
-0.625 -0.625 0
-0.625 -0.75 0
-0.5625 -0.75 0
-0.625 -0.6875 0
-0.5625 -0.6875 0
-0.5625 -0.75 0
-0.5 -0.75 0
-0.5625 -0.6875 0
-0.5 -0.6875 0
-0.625 -0.6875 0
-0.5625 -0.6875 0
-0.625 -0.625 0
-0.5625 -0.625 0
-0.5625 -0.6875 0
-0.5 -0.6875 0
-0.5625 -0.625 0
-0.5 -0.625 0
-0.5 -0.75 0
-0.4375 -0.75 0
-0.5 -0.6875 0
-0.4375 -0.6875 0
-0.4375 -0.75 0
-0.375 -0.75 0
-0.4375 -0.6875 0
-0.375 -0.6875 0
-0.5 -0.6875 0
-0.4375 -0.6875 0
-0.5 -0.625 0
-0.4375 -0.625 0
-0.4375 -0.6875 0
-0.375 -0.6875 0
-0.4375 -0.625 0
-0.375 -0.625 0
-0.375 -0.75 0
-0.3125 -0.75 0
-0.375 -0.6875 0
-0.3125 -0.6875 0
-0.3125 -0.75 0
-0.25 -0.75 0
-0.3125 -0.6875 0
-0.25 -0.6875 0
-0.375 -0.6875 0
-0.3125 -0.6875 0
-0.375 -0.625 0
-0.3125 -0.625 0
-0.3125 -0.6875 0
-0.25 -0.6875 0
-0.3125 -0.625 0
-0.25 -0.625 0
-0.25 -0.75 0
-0.1875 -0.75 0
-0.25 -0.6875 0
-0.1875 -0.6875 0
-0.1875 -0.75 0
-0.125 -0.75 0
-0.1875 -0.6875 0
-0.125 -0.6875 0
-0.25 -0.6875 0
-0.1875 -0.6875 0
-0.25 -0.625 0
-0.1875 -0.625 0
-0.1875 -0.6875 0
-0.125 -0.6875 0
-0.1875 -0.625 0
-0.125 -0.625 0
-0.125 -0.75 0
-0.0625 -0.75 0
-0.125 -0.6875 0
-0.0625 -0.6875 0
-0.0625 -0.75 0
0 -0.75 0
-0.0625 -0.6875 0
0 -0.6875 0
-0.125 -0.6875 0
[...]
POINT_DATA 4096
SCALARS solution double 1
LOOKUP_TABLE default
1 0.980785 0.980785 0.92459 0.980785 0.92388 0.92459 0.832561 0.980785 0.92459 0.92388 0.831259 0.92459 0.832561 0.831259 0.707008 0.92388 0.83147 0.832561 0.708301 0.83147 0.707107 0.708301 0.556693 0.832561 0.708301 0.707008 0.55586 0.708301 0.556693 0.55586 0.382737 0.707107 0.55557 0.556693 0.383553 0.55557 0.382683 0.383553 0.195635 0.556693 0.383553 0.382737 0.194195 0.383553 0.195635 0.194195 -0.0026604 0.382683 0.19509 0.195635 0.000185739 0.19509 -1.83697e-16 0.000185739 -0.195283 0.195635 0.000185739 -0.0026604 -0.200767 0.000185739 -0.195283 -0.200767 -0.39306 -1.83697e-16 -0.19509 -0.195283 -0.383211 -0.19509 -0.382683 -0.383211 -0.556358 -0.195283 -0.383211 -0.39306 -0.57294 -0.383211 -0.556358 -0.57294 -0.734539 -0.382683 -0.55557 -0.556358 -0.708095 -0.55557 -0.707107 -0.708095 -0.83262 -0.556358 -0.708095 -0.734539 -0.872783 -0.708095 -0.83262 -0.872783 -0.983516 -0.707107 -0.83147 -0.83262 -0.925168 -0.83147 -0.92388 -0.925168 -0.98221 -0.83262 -0.925168 -0.983516 -1.06347 -0.925168 -0.98221 -1.06347 -1.11025 -0.92388 -0.980785 -0.98221 -1.0018 -0.980785 -1 -1.0018 -0.98402 -0.98221 -1.0018 -1.11025 -1.12251 -1.0018 -0.98402 -1.12251 -1.10025 -1 -0.980785 -0.98402 -0.931184 -0.980785 -0.92388 -0.931184 -0.847585 -0.98402 -0.931184 -1.10025 -1.04485 -0.931184 -0.847585 -1.04485 -0.958915 -0.92388 -0.83147 -0.847585 -0.739003 -0.83147 -0.707107 -0.739003 -0.612412 -0.847585 -0.739003 -0.958915 -0.845953 -0.739003 -0.612412 -0.845953 -0.710433 -0.707107 -0.55557 -0.612412 -0.475903 -0.55557 -0.382683 -0.475903 -0.338384 -0.612412 -0.475903 -0.710433 -0.557926 -0.475903 -0.338384 -0.557926 -0.395219 -0.382683 -0.19509 -0.338384 -0.2088 -0.19509 6.12323e-17 -0.2088 -0.095166 -0.338384 -0.2088 -0.395219 -0.230327 -0.2088 -0.095166 -0.230327 -0.0723847 6.12323e-17 0.19509 -0.095166 -0.00374904 0.19509 0.382683 -0.00374904 0.0615941 -0.095166 -0.00374904 -0.0723847 0.0687067 -0.00374904 0.0615941 0.0687067 0.182976 0.382683 0.55557 0.0615941 0.100023 0.55557 0.707107 0.100023 0.11412 0.0615941 0.100023 0.182976 0.261338 0.100023 0.11412 0.261338 0.296708 0.707107 0.83147 0.11412 0.109876 0.83147 0.92388 0.109876 0.0961974 0.11412 0.109876 0.296708 0.285302 0.109876 0.0961974 0.285302 0.227984 0.92388 0.980785 0.0961974 0.0839353 0.980785 0 0.0839353 0 0.0961974 0.0839353 0.227984 0.13141 0.0839353 0 0.13141 0 0.92388 0.831259 0.83147 0.692966 0.831259 0.707008 0.692966 0.53367 0.83147 0.692966 0.707107 0.535249 0.692966 0.53367 0.535249 0.338309 0.707008 0.55586 0.53367 0.35273 0.55586 0.382737 0.35273 0.155744 0.53367 0.35273 0.338309 0.135112 0.35273 0.155744 0.135112 -0.0681833 0.382737 0.194195 0.155744 -0.049971 0.194195 -0.0026604 -0.049971 -0.25746 0.155744 -0.049971 -0.0681833 -0.269762 -0.049971 -0.25746 -0.269762 -0.46364 -0.0026604 -0.200767 -0.25746 -0.458949 -0.200767 -0.39306 -0.458949 -0.6467 -0.25746 -0.458949 -0.46364 -0.642814 -0.458949 -0.6467 -0.642814 -0.80147 -0.39306 -0.57294 -0.6467 -0.813754 -0.57294 -0.734539 -0.813754 -0.953921 -0.6467 -0.813754 -0.80147 -0.934137 -0.813754 -0.953921 -0.934137 -1.03619 -0.734539 -0.872783 -0.953921 -1.06215 -0.872783 -0.983516 -1.06215 -1.1347 -0.953921 -1.06215 -1.03619 -1.10437 -1.06215 -1.1347 -1.10437 -1.13643 -0.983516 -1.06347 -1.1347 -1.16911 -1.06347 -1.11025 -1.16911 -1.16436 -1.1347 -1.16911 -1.13643 -1.13118 -1.16911 -1.16436 -1.13118 -1.08883 -1.11025 -1.12251 -1.16436 -1.12135 -1.12251 -1.10025 -1.12135 -1.04298 -1.16436 -1.12135 -1.08883 -1.01131 -1.12135 -1.04298 -1.01131 -0.902439 -1.10025 -1.04485 -1.04298 -0.933874 -1.04485 -0.958915 -0.933874 -0.799808 -1.04298 -0.933874 -0.902439 -0.767384 -0.933874 -0.799808 -0.767384 -0.612094 -0.958915 -0.845953 -0.799808 -0.647238 -0.845953 -0.710433 -0.647238 -0.483253 -0.799808 -0.647238 -0.612094 -0.443133 -0.647238 -0.483253 -0.443133 -0.267815 -0.710433 -0.557926 -0.483253 -0.315419 -0.557926 -0.395219 -0.315419 -0.15129 -0.483253 -0.315419 -0.267815 -0.0940453 -0.315419 -0.15129 -0.0940453 0.0701533 -0.395219 -0.230327 -0.15129 0.0020633 -0.230327 -0.0723847 0.0020633 0.13814 -0.15129 0.0020633 0.0701533 0.217105 0.0020633 0.13814 0.217105 0.33984 -0.0723847 0.0687067 0.13814 0.250857 0.0687067 0.182976 0.250857 0.334468 0.13814 0.250857 0.33984 0.432433 0.250857 0.334468 0.432433 0.490233 0.182976 0.261338 0.334468 0.383669 0.261338 0.296708 0.383669 0.393825 0.334468 0.383669 0.490233 0.509869 0.383669 0.393825 0.509869 0.489155 0.296708 0.285302 0.393825 0.361351 0.285302 0.227984 0.361351 0.284358 0.393825 0.361351 0.489155 0.427094 0.361351 0.284358 0.427094 0.32398 0.227984 0.13141 0.284358 0.163664 0.13141 0 0.163664 0 0.284358 0.163664 0.32398 0.181561 0.163664 0 0.181561 0 0.707107 0.535249 0.55557 0.382401 0.535249 0.338309 0.382401 0.188322 0.55557 0.382401 0.382683 0.193372 0.382401 0.188322 0.193372 -0.00334399 0.338309 0.135112 0.188322 -0.0252763 0.135112 -0.0681833 -0.0252763 -0.242725 0.188322 -0.0252763 -0.00334399 -0.199732 -0.0252763 -0.242725 -0.199732 -0.39478 -0.0681833 -0.269762 -0.242725 -0.446002 -0.269762 -0.46364 -0.446002 -0.628112 -0.242725 -0.446002 -0.39478 -0.585578 -0.446002 -0.628112 -0.585578 -0.758288 -0.46364 -0.642814 -0.628112 -0.787215 -0.642814 -0.80147 -0.787215 -0.919198 -0.628112 -0.787215 -0.758288 -0.89798 -0.787215 -0.919198 -0.89798 -0.9997 -0.80147 -0.934137 -0.919198 -1.01958 -0.934137 -1.03619 -1.01958 -1.08551 -0.919198 -1.01958 -0.9997 -1.06423 -1.01958 -1.08551 -1.06423 -1.09145 -1.03619 -1.10437 -1.08551 -1.11501 -1.10437 -1.13643 -1.11501 -1.10694 -1.08551 -1.11501 -1.09145 -1.08089 -1.11501 -1.10694 -1.08089 -1.03316 -1.13643 -1.13118 -1.10694 -1.06145 -1.13118 -1.08883 -1.06145 -0.980277 -1.10694 -1.06145 -1.03316 -0.949728 -1.06145 -0.980277 -0.949728 -0.833629 -1.08883 -1.01131 -0.980277 -0.86712 -1.01131 -0.902439 -0.86712 -0.72744 -0.980277 -0.86712 -0.833629 -0.690089 -0.86712 -0.72744 -0.690089 -0.525693 -0.902439 -0.767384 -0.72744 -0.567566 -0.767384 -0.612094 -0.567566 -0.394127 -0.72744 -0.567566 -0.525693 -0.347349 -0.567566 -0.394127 -0.347349 -0.162089 -0.612094 -0.443133 -0.394127 -0.214159 -0.443133 -0.267815 -0.214159 -0.035182 -0.394127 -0.214159 -0.162089 0.0226931 -0.214159 -0.035182 0.0226931 0.199339 -0.267815 -0.0940453 -0.035182 0.135159 -0.0940453 0.0701533 0.135159 0.289562 -0.035182 0.135159 0.199339 0.36048 0.135159 0.289562 0.36048 0.499485 0.0701533 0.217105 0.289562 0.421283 0.217105 0.33984 0.421283 0.524247 0.289562 0.421283 0.499485 0.610577 0.421283 0.524247 0.610577 0.68895 0.33984 0.432433 0.524247 0.593335 0.432433 0.490233 0.593335 0.62476 0.524247 0.593335 0.68895 0.730991 0.593335 0.62476 0.730991 0.734415 0.490233 0.509869 0.62476 0.616292 0.509869 0.489155 0.616292 0.567288 0.62476 0.616292 0.734415 0.698341 0.616292 0.567288 0.698341 0.623428 0.489155 0.427094 0.567288 0.478597 0.427094 0.32398 0.478597 0.352424 0.567288 0.478597 0.623428 0.511953 0.478597 0.352424 0.511953 0.367696 0.32398 0.181561 0.352424 0.192229 0.181561 0 0.192229 0 0.352424 0.192229 0.367696 0.195683 0.192229 0 0.195683 0 0.382683 0.193372 0.19509 0.000302222 0.193372 -0.00334399 0.000302222 -0.195232 0.19509 0.000302222 -1.83697e-16 -0.193469 0.000302222 -0.195232 -0.193469 -0.380001 -0.00334399 -0.199732 -0.195232 -0.38438 -0.199732 -0.39478 -0.38438 -0.558583 -0.195232 -0.38438 -0.380001 -0.552225 -0.38438 -0.558583 -0.552225 -0.70375 -0.39478 -0.585578 -0.558583 -0.711661 -0.585578 -0.758288 -0.711661 -0.843604 -0.558583 -0.711661 -0.70375 -0.828845 -0.711661 -0.843604 -0.828845 -0.921628 -0.758288 -0.89798 -0.843604 -0.9529 -0.89798 -0.9997 -0.9529 -1.02974 -0.843604 -0.9529 -0.921628 -0.979646 -0.9529 -1.02974 -0.979646 -1.00619 -0.9997 -1.06423 -1.02974 -1.06418 -1.06423 -1.09145 -1.06418 -1.05503 -1.02974 -1.06418 -1.00619 -1.00329 -1.06418 -1.05503 -1.00329 -0.965937 -1.09145 -1.08089 -1.05503 -1.00619 -1.08089 -1.03316 -1.00619 -0.920822 -1.05503 -1.00619 -0.965937 -0.888418 -1.00619 -0.920822 -0.888418 -0.772013 -1.03316 -0.949728 -0.920822 -0.801995 -0.949728 -0.833629 -0.801995 -0.654856 -0.920822 -0.801995 -0.772013 -0.623628 -0.801995 -0.654856 -0.623628 -0.451532 -0.833629 -0.690089 -0.654856 -0.48622 -0.690089 -0.525693 -0.48622 -0.303353 -0.654856 -0.48622 -0.451532 -0.264118 -0.48622 -0.303353 -0.264118 -0.0694525 -0.525693 -0.347349 -0.303353 -0.113387 -0.347349 -0.162089 -0.113387 0.0765449 -0.303353 -0.113387 -0.0694525 0.125208 -0.113387 0.0765449 0.125208 0.312787 -0.162089 0.0226931 0.0765449 0.258997 0.0226931 0.199339 0.258997 0.426545 0.0765449 0.258997 0.312787 0.485991 0.258997 0.426545 0.485991 0.638036 0.199339 0.36048 0.426545 0.572473 0.36048 0.499485 0.572473 0.691037 0.426545 0.572473 0.638036 0.763215 0.572473 0.691037 0.763215 0.856864 0.499485 0.610577 0.691037 0.777481 0.610577 0.68895 0.777481 0.828269 0.691037 0.777481 0.856864 0.915449 0.777481 0.828269 0.915449 0.936855 0.68895 0.730991 0.828269 0.841318 0.730991 0.734415 0.841318 0.816027 0.828269 0.841318 0.936855 0.920516 0.841318 0.816027 0.920516 0.867372 0.734415 0.698341 0.816027 0.753226 0.698341 0.623428 0.753226 0.655149 0.816027 0.753226 0.867372 0.779854 0.753226 0.655149 0.779854 0.66181 0.623428 0.511953 0.655149 0.525401 0.511953 0.367696 0.525401 0.368898 0.655149 0.525401 0.66181 0.518319 0.525401 0.368898 0.518319 0.355477 0.367696 0.195683 0.368898 0.191757 0.195683 0 0.191757 0 0.368898 0.191757 0.355477 0.180218 0.191757 0 0.180218 0 -1.83697e-16 -0.193469 -0.19509 -0.379728 -0.193469 -0.380001 -0.379728 -0.550018 -0.19509 -0.379728 -0.382683 -0.551379 -0.379728 -0.550018 -0.551379 -0.698923 -0.380001 -0.552225 -0.550018 -0.699321 -0.552225 -0.70375 -0.699321 -0.82176 -0.550018 -0.699321 -0.698923 -0.819443 -0.699321 -0.82176 -0.819443 -0.908117 -0.70375 -0.828845 -0.82176 -0.912461 -0.828845 -0.921628 -0.912461 -0.968196 -0.82176 -0.912461 -0.908117 -0.961426 -0.912461 -0.968196 -0.961426 -0.977247 -0.921628 -0.979646 -0.968196 -0.98691 -0.979646 -1.00619 -0.98691 -0.967416 -0.968196 -0.98691 -0.977247 -0.955177 -0.98691 -0.967416 -0.955177 -0.896808 -1.00619 -1.00329 -0.967416 -0.912198 -1.00329 -0.965937 -0.912198 -0.827804 -0.967416 -0.912198 -0.896808 -0.804451 -0.912198 -0.827804 -0.804451 -0.680128 -0.965937 -0.888418 -0.827804 -0.718173 -0.888418 -0.772013 -0.718173 -0.581191 -0.827804 -0.718173 -0.680128 -0.528089 -0.718173 -0.581191 -0.528089 -0.356703 -0.772013 -0.623628 -0.581191 -0.415929 -0.623628 -0.451532 -0.415929 -0.229151 -0.581191 -0.415929 -0.356703 -0.174401 -0.415929 -0.229151 -0.174401 0.0145711 -0.451532 -0.264118 -0.229151 -0.0317869 -0.264118 -0.0694525 -0.0317869 0.166781 -0.229151 -0.0317869 0.0145711 0.207584 -0.0317869 0.166781 0.207584 0.39892 -0.0694525 0.125208 0.166781 0.358991 0.125208 0.312787 0.358991 0.537393 0.166781 0.358991 0.39892 0.579855 0.358991 0.537393 0.579855 0.741747 0.312787 0.485991 0.537393 0.694943 0.485991 0.638036 0.694943 0.825866 0.537393 0.694943 0.741747 0.877776 0.694943 0.825866 0.877776 0.982949 0.638036 0.763215 0.825866 0.925639 0.763215 0.856864 0.925639 0.990836 0.825866 0.925639 0.982949 1.05378 0.925639 0.990836 1.05378 1.0882 0.856864 0.915449 0.990836 1.01936 0.915449 0.936855 1.01936 1.01064 0.990836 1.01936 1.0882 1.08565 1.01936 1.01064 1.08565 1.04718 0.936855 0.920516 1.01064 0.965653 0.920516 0.867372 0.965653 0.886826 1.01064 0.965653 1.04718 0.975262 0.965653 0.886826 0.975262 0.87377 0.867372 0.779854 0.886826 0.778023 0.779854 0.66181 0.778023 0.644425 0.886826 0.778023 0.87377 0.747872 0.778023 0.644425 0.747872 0.603859 0.66181 0.518319 0.644425 0.492323 0.518319 0.355477 0.492323 0.328875 0.644425 0.492323 0.603859 0.448909 0.492323 0.328875 0.448909 0.290854 0.355477 0.180218 0.328875 0.161832 0.180218 0 0.161832 0 0.328875 0.161832 0.290854 0.137907 0.161832 0 0.137907 0 -0.382683 -0.551379 -0.55557 -0.701835 -0.551379 -0.698923 -0.701835 -0.82094 -0.55557 -0.701835 -0.707107 -0.825297 -0.701835 -0.82094 -0.825297 -0.911365 -0.698923 -0.819443 -0.82094 -0.908044 -0.819443 -0.908117 -0.908044 -0.95956 -0.82094 -0.908044 -0.911365 -0.96169 -0.908044 -0.95956 -0.96169 -0.974049 -0.908117 -0.961426 -0.95956 -0.973324 -0.961426 -0.977247 -0.973324 -0.948824 -0.95956 -0.973324 -0.974049 -0.947792 -0.973324 -0.948824 -0.947792 -0.88409 -0.977247 -0.955177 -0.948824 -0.887421 -0.955177 -0.896808 -0.887421 -0.792023 -0.948824 -0.887421 -0.88409 -0.786056 -0.887421 -0.792023 -0.786056 -0.658041 -0.896808 -0.804451 -0.792023 -0.666142 -0.804451 -0.680128 -0.666142 -0.512911 -0.792023 -0.666142 -0.658041 -0.503959 -0.666142 -0.512911 -0.503959 -0.326509 -0.680128 -0.528089 -0.512911 -0.335193 -0.528089 -0.356703 -0.335193 -0.138234 -0.512911 -0.335193 -0.326509 -0.129491 -0.335193 -0.138234 -0.129491 0.0793833 -0.356703 -0.174401 -0.138234 0.0673524 -0.174401 0.0145711 0.0673524 0.268294 -0.138234 0.0673524 0.0793833 0.290006 0.0673524 0.268294 0.290006 0.493398 0.0145711 0.207584 0.268294 0.456047 0.207584 0.39892 0.456047 0.628778 0.268294 0.456047 0.493398 0.681352 0.456047 0.628778 0.681352 0.844909 0.39892 0.579855 0.628778 0.785326 0.579855 0.741747 0.785326 0.920735 0.628778 0.785326 0.844909 0.977382 0.785326 0.920735 0.977382 1.0776 0.741747 0.877776 0.920735 1.02839 0.877776 0.982949 1.02839 1.10328 0.920735 1.02839 1.0776 1.147 1.02839 1.10328 1.147 1.18498 0.982949 1.05378 1.10328 1.14254 1.05378 1.0882 1.14254 1.14508 1.10328 1.14254 1.18498 1.18932 1.14254 1.14508 1.18932 1.15921 1.0882 1.08565 1.14508 1.11174 1.08565 1.04718 1.11174 1.04503 1.14508 1.11174 1.15921 1.0963 1.11174 1.04503 1.0963 1.00402 1.04718 0.975262 1.04503 0.948877 0.975262 0.87377 0.948877 0.828469 1.04503 0.948877 1.00402 0.887353 0.948877 0.828469 0.887353 0.752586 0.87377 0.747872 0.828469 0.690133 0.747872 0.603859 0.690133 0.541055 0.828469 0.690133 0.752586 0.606959 0.690133 0.541055 0.606959 0.458302 0.603859 0.448909 0.541055 0.389043 0.448909 0.290854 0.389043 0.242293 0.541055 0.389043 0.458302 0.314816 0.389043 0.242293 0.314816 0.18478 0.290854 0.137907 0.242293 0.10909 0.137907 0 0.10909 0 0.242293 0.10909 0.18478 0.0762456 0.10909 0 0.0762456 0 -0.707107 -0.825297 -0.83147 -0.917042 -0.825297 -0.911365 -0.917042 -0.966755 -0.83147 -0.917042 -0.92388 -0.973556 -0.917042 -0.966755 -0.973556 -0.985011 -0.911365 -0.96169 -0.966755 -0.978349 -0.96169 -0.974049 -0.978349 -0.951079 -0.966755 -0.978349 -0.985011 -0.957432 -0.978349 -0.951079 -0.957432 -0.891609 -0.974049 -0.947792 -0.951079 -0.8859 -0.947792 -0.88409 -0.8859 -0.785776 -0.951079 -0.8859 -0.891609 -0.790201 -0.8859 -0.785776 -0.790201 -0.658074 -0.88409 -0.786056 -0.785776 -0.655564 -0.786056 -0.658041 -0.655564 -0.500506 -0.785776 -0.655564 -0.658074 -0.501602 -0.655564 -0.500506 -0.501602 -0.326063 -0.658041 -0.503959 -0.500506 -0.324112 -0.503959 -0.326509 -0.324112 -0.128697 -0.500506 -0.324112 -0.326063 -0.133721 -0.324112 -0.128697 -0.133721 0.0732994 -0.326509 -0.129491 -0.128697 0.0807237 -0.129491 0.0793833 0.0807237 0.294343 -0.128697 0.0807237 0.0732994 0.287729 0.0807237 0.294343 0.287729 0.497559 0.0793833 0.290006 0.294343 0.501049 0.290006 0.493398 0.501049 0.692962 0.294343 0.501049 0.497559 0.692448 0.501049 0.692962 0.692448 0.866779 0.493398 0.681352 0.692962 0.865226 0.681352 0.844909 0.865226 1.01247 0.692962 0.865226 0.866779 1.01621 0.865226 1.01247 1.01621 1.1354 0.844909 0.977382 1.01247 1.12739 0.977382 1.0776 1.12739 1.20332 1.01247 1.12739 1.1354 1.22028 1.12739 1.20332 1.22028 1.26877 1.0776 1.147 1.20332 1.23812 1.147 1.18498 1.23812 1.23486 1.20332 1.23812 1.26877 1.27862 1.23812 1.23486 1.27862 1.24781 1.18498 1.18932 1.23486 1.19863 1.18932 1.15921 1.19863 1.13319 1.23486 1.19863 1.24781 1.17843 1.19863 1.13319 1.17843 1.07778 1.15921 1.0963 1.13319 1.04116 1.0963 1.00402 1.04116 0.926018 1.13319 1.04116 1.07778 0.954939 1.04116 0.926018 0.954939 0.817377 1.00402 0.887353 0.926018 0.793101 0.887353 0.752586 0.793101 0.649137 0.926018 0.793101 0.817377 0.671131 0.793101 0.649137 0.671131 0.522462 0.752586 0.606959 0.649137 0.501734 0.606959 0.458302 0.501734 0.359039 0.649137 0.501734 0.522462 0.378539 0.501734 0.359039 0.378539 0.247108 0.458302 0.314816 0.359039 0.229345 0.314816 0.18478 0.229345 0.120718 0.359039 0.229345 0.247108 0.135988 0.229345 0.120718 0.135988 0.0526754 0.18478 0.0762456 0.120718 0.0407258 0.0762456 0 0.0407258 0 0.120718 0.0407258 0.0526754 0.00397842 0.0407258 0 0.00397842 0 -0.92388 -0.973556 -0.980785 -0.992647 -0.973556 -0.985011 -0.992647 -0.9654 -0.980785 -0.992647 -1 -0.97357 -0.992647 -0.9654 -0.97357 -0.908651 -0.985011 -0.957432 -0.9654 -0.899721 -0.957432 -0.891609 -0.899721 -0.797965 -0.9654 -0.899721 -0.908651 -0.807405 -0.899721 -0.797965 -0.807405 -0.673815 -0.891609 -0.790201 -0.797965 -0.664613 -0.790201 -0.658074 -0.664613 -0.506486 -0.797965 -0.664613 -0.673815 -0.514371 -0.664613 -0.506486 -0.514371 -0.337723 -0.658074 -0.501602 -0.506486 -0.330899 -0.501602 -0.326063 -0.330899 -0.141903 -0.506486 -0.330899 -0.337723 -0.150962 -0.330899 -0.141903 -0.150962 0.0446341 -0.326063 -0.133721 -0.141903 0.0600846 -0.133721 0.0732994 0.0600846 0.272054 -0.141903 0.0600846 0.0446341 0.250269 0.0600846 0.272054 0.250269 0.460164 0.0732994 0.287729 0.272054 0.483486 0.287729 0.497559 0.483486 0.681229 0.272054 0.483486 0.460164 0.660233 0.483486 0.681229 0.660233 0.838219 0.497559 0.692448 0.681229 0.857249 0.692448 0.866779 0.857249 1.00803 0.681229 0.857249 0.838219 0.989565 0.857249 1.00803 0.989565 1.11201 0.866779 1.01621 1.00803 1.12948 1.01621 1.1354 1.12948 1.21678 1.00803 1.12948 1.11201 1.20116 1.12948 1.21678 1.20116 1.25343 1.1354 1.22028 1.21678 1.26729 1.22028 1.26877 1.26729 1.28072 1.21678 1.26729 1.25343 1.26837 1.26729 1.28072 1.26837 1.24698 1.26877 1.27862 1.28072 1.25798 1.27862 1.24781 1.25798 1.20079 1.28072 1.25798 1.24698 1.19097 1.25798 1.20079 1.19097 1.10378 1.24781 1.17843 1.20079 1.11111 1.17843 1.07778 1.11111 0.991635 1.20079 1.11111 1.10378 0.990617 1.11111 0.991635 0.990617 0.85708 1.07778 0.954939 0.991635 0.848378 0.954939 0.817377 0.848378 0.691547 0.991635 0.848378 0.85708 0.708245 0.848378 0.691547 0.708245 0.549631 0.817377 0.671131 0.691547 0.532554 0.671131 0.522462 0.532554 0.380775 0.691547 0.532554 0.549631 0.389317 0.532554 0.380775 0.389317 0.238324 0.522462 0.378539 0.380775 0.243432 0.378539 0.247108 0.243432 0.127076 0.380775 0.243432 0.238324 0.107964 0.243432 0.127076 0.107964 0.00697011 0.247108 0.135988 0.127076 0.0382327 0.135988 0.0526754 0.0382327 -0.0168605 0.127076 0.0382327 0.00697011 -0.0587649 0.0382327 -0.0168605 -0.0587649 -0.0848681 0.0526754 0.00397842 -0.0168605 -0.0326467 0.00397842 0 -0.0326467 0 -0.0168605 -0.0326467 -0.0848681 -0.0677458 -0.0326467 0 -0.0677458 0 -1 -0.97357 -0.980785 -0.917061 -0.97357 -0.908651 -0.917061 -0.816945 -0.980785 -0.917061 -0.92388 -0.825286 -0.917061 -0.816945 -0.825286 -0.693807 -0.908651 -0.807405 -0.816945 -0.684062 -0.807405 -0.673815 -0.684062 -0.524163 -0.816945 -0.684062 -0.693807 -0.534524 -0.684062 -0.524163 -0.534524 -0.35526 -0.673815 -0.514371 -0.524163 -0.345994 -0.514371 -0.337723 -0.345994 -0.159501 -0.524163 -0.345994 -0.35526 -0.167217 -0.345994 -0.159501 -0.167217 0.0197701 -0.337723 -0.150962 -0.159501 0.0304009 -0.150962 0.0446341 0.0304009 0.226536 -0.159501 0.0304009 0.0197701 0.205652 0.0304009 0.226536 0.205652 0.397502 0.0446341 0.250269 0.226536 0.430092 0.250269 0.460164 0.430092 0.630334 0.226536 0.430092 0.397502 0.593137 0.430092 0.630334 0.593137 0.775592 0.460164 0.660233 0.630334 0.810798 0.660233 0.838219 0.810798 0.962749 0.630334 0.810798 0.775592 0.929191 0.810798 0.962749 0.929191 1.05074 0.838219 0.989565 0.962749 1.08503 0.989565 1.11201 1.08503 1.17521 0.962749 1.08503 1.05074 1.14078 1.08503 1.17521 1.14078 1.19575 1.11201 1.20116 1.17521 1.22898 1.20116 1.25343 1.22898 1.24491 1.17521 1.22898 1.19575 1.21264 1.22898 1.24491 1.21264 1.19258 1.25343 1.26837 1.24491 1.22437 1.26837 1.24698 1.22437 