# vtk DataFile Version 3.0
#This file was generated by the deal.II library on 2020/5/26 at 20:14:56
ASCII
DATASET UNSTRUCTURED_GRID

POINTS 16384 double
-1 -1 0
-0.96875 -1 0
-1 -0.96875 0
-0.96875 -0.96875 0
-0.96875 -1 0
-0.9375 -1 0
-0.96875 -0.96875 0
-0.9375 -0.96875 0
-1 -0.96875 0
-0.96875 -0.96875 0
-1 -0.9375 0
-0.96875 -0.9375 0
-0.96875 -0.96875 0
-0.9375 -0.96875 0
-0.96875 -0.9375 0
-0.9375 -0.9375 0
-0.9375 -1 0
-0.90625 -1 0
-0.9375 -0.96875 0
-0.90625 -0.96875 0
-0.90625 -1 0
-0.875 -1 0
-0.90625 -0.96875 0
-0.875 -0.96875 0
-0.9375 -0.96875 0
-0.90625 -0.96875 0
-0.9375 -0.9375 0
-0.90625 -0.9375 0
-0.90625 -0.96875 0
-0.875 -0.96875 0
-0.90625 -0.9375 0
-0.875 -0.9375 0
-1 -0.9375 0
-0.96875 -0.9375 0
-1 -0.90625 0
-0.96875 -0.90625 0
-0.96875 -0.9375 0
-0.9375 -0.9375 0
-0.96875 -0.90625 0
-0.9375 -0.90625 0
-1 -0.90625 0
-0.96875 -0.90625 0
-1 -0.875 0
-0.96875 -0.875 0
-0.96875 -0.90625 0
-0.9375 -0.90625 0
-0.96875 -0.875 0
-0.9375 -0.875 0
-0.9375 -0.9375 0
-0.90625 -0.9375 0
-0.9375 -0.90625 0
-0.90625 -0.90625 0
-0.90625 -0.9375 0
-0.875 -0.9375 0
-0.90625 -0.90625 0
-0.875 -0.90625 0
-0.9375 -0.90625 0
-0.90625 -0.90625 0
-0.9375 -0.875 0
-0.90625 -0.875 0
-0.90625 -0.90625 0
-0.875 -0.90625 0
-0.90625 -0.875 0
-0.875 -0.875 0
-0.875 -1 0
-0.84375 -1 0
-0.875 -0.96875 0
-0.84375 -0.96875 0
-0.84375 -1 0
-0.8125 -1 0
-0.84375 -0.96875 0
-0.8125 -0.96875 0
-0.875 -0.96875 0
-0.84375 -0.96875 0
-0.875 -0.9375 0
-0.84375 -0.9375 0
-0.84375 -0.96875 0
-0.8125 -0.96875 0
-0.84375 -0.9375 0
-0.8125 -0.9375 0
-0.8125 -1 0
-0.78125 -1 0
-0.8125 -0.96875 0
-0.78125 -0.96875 0
-0.78125 -1 0
-0.75 -1 0
-0.78125 -0.96875 0
-0.75 -0.96875 0
-0.8125 -0.96875 0
-0.78125 -0.96875 0
-0.8125 -0.9375 0
-0.78125 -0.9375 0
-0.78125 -0.96875 0
-0.75 -0.96875 0
-0.78125 -0.9375 0
-0.75 -0.9375 0
-0.875 -0.9375 0
-0.84375 -0.9375 0
-0.875 -0.90625 0
-0.84375 -0.90625 0
-0.84375 -0.9375 0
-0.8125 -0.9375 0
-0.84375 -0.90625 0
-0.8125 -0.90625 0
-0.875 -0.90625 0
-0.84375 -0.90625 0
-0.875 -0.875 0
-0.84375 -0.875 0
-0.84375 -0.90625 0
-0.8125 -0.90625 0
-0.84375 -0.875 0
-0.8125 -0.875 0
-0.8125 -0.9375 0
-0.78125 -0.9375 0
-0.8125 -0.90625 0
-0.78125 -0.90625 0
-0.78125 -0.9375 0
-0.75 -0.9375 0
-0.78125 -0.90625 0
-0.75 -0.90625 0
-0.8125 -0.90625 0
-0.78125 -0.90625 0
-0.8125 -0.875 0
-0.78125 -0.875 0
-0.78125 -0.90625 0
-0.75 -0.90625 0
-0.78125 -0.875 0
-0.75 -0.875 0
-0.75 -1 0
-0.71875 -1 0
-0.75 -0.96875 0
-0.71875 -0.96875 0
-0.71875 -1 0
-0.6875 -1 0
-0.71875 -0.96875 0
-0.6875 -0.96875 0
-0.75 -0.96875 0
-0.71875 -0.96875 0
-0.75 -0.9375 0
-0.71875 -0.9375 0
-0.71875 -0.96875 0
-0.6875 -0.96875 0
-0.71875 -0.9375 0
-0.6875 -0.9375 0
-0.6875 -1 0
-0.65625 -1 0
-0.6875 -0.96875 0
-0.65625 -0.96875 0
-0.65625 -1 0
-0.625 -1 0
-0.65625 -0.96875 0
-0.625 -0.96875 0
-0.6875 -0.96875 0
-0.65625 -0.96875 0
-0.6875 -0.9375 0
-0.65625 -0.9375 0
-0.65625 -0.96875 0
-0.625 -0.96875 0
-0.65625 -0.9375 0
-0.625 -0.9375 0
-0.75 -0.9375 0
-0.71875 -0.9375 0
-0.75 -0.90625 0
-0.71875 -0.90625 0
-0.71875 -0.9375 0
-0.6875 -0.9375 0
-0.71875 -0.90625 0
-0.6875 -0.90625 0
-0.75 -0.90625 0
-0.71875 -0.90625 0
-0.75 -0.875 0
-0.71875 -0.875 0
-0.71875 -0.90625 0
-0.6875 -0.90625 0
-0.71875 -0.875 0
-0.6875 -0.875 0
-0.6875 -0.9375 0
-0.65625 -0.9375 0
-0.6875 -0.90625 0
-0.65625 -0.90625 0
-0.65625 -0.9375 0
-0.625 -0.9375 0
-0.65625 -0.90625 0
-0.625 -0.90625 0
-0.6875 -0.90625 0
-0.65625 -0.90625 0
-0.6875 -0.875 0
-0.65625 -0.875 0
-0.65625 -0.90625 0
-0.625 -0.90625 0
-0.65625 -0.875 0
-0.625 -0.875 0
-0.625 -1 0
-0.59375 -1 0
-0.625 -0.96875 0
-0.59375 -0.96875 0
-0.59375 -1 0
-0.5625 -1 0
-0.59375 -0.96875 0
-0.5625 -0.96875 0
-0.625 -0.96875 0
-0.59375 -0.96875 0
-0.625 -0.9375 0
-0.59375 -0.9375 0
-0.59375 -0.96875 0
-0.5625 -0.96875 0
-0.59375 -0.9375 0
-0.5625 -0.9375 0
-0.5625 -1 0
-0.53125 -1 0
-0.5625 -0.96875 0
-0.53125 -0.96875 0
-0.53125 -1 0
-0.5 -1 0
-0.53125 -0.96875 0
-0.5 -0.96875 0
-0.5625 -0.96875 0
-0.53125 -0.96875 0
-0.5625 -0.9375 0
-0.53125 -0.9375 0
-0.53125 -0.96875 0
-0.5 -0.96875 0
-0.53125 -0.9375 0
-0.5 -0.9375 0
-0.625 -0.9375 0
-0.59375 -0.9375 0
-0.625 -0.90625 0
-0.59375 -0.90625 0
-0.59375 -0.9375 0
-0.5625 -0.9375 0
-0.59375 -0.90625 0
-0.5625 -0.90625 0
-0.625 -0.90625 0
-0.59375 -0.90625 0
-0.625 -0.875 0
-0.59375 -0.875 0
-0.59375 -0.90625 0
-0.5625 -0.90625 0
-0.59375 -0.875 0
-0.5625 -0.875 0
-0.5625 -0.9375 0
-0.53125 -0.9375 0
-0.5625 -0.90625 0
-0.53125 -0.90625 0
-0.53125 -0.9375 0
-0.5 -0.9375 0
-0.53125 -0.90625 0
-0.5 -0.90625 0
-0.5625 -0.90625 0
-0.53125 -0.90625 0
-0.5625 -0.875 0
-0.53125 -0.875 0
-0.53125 -0.90625 0
-0.5 -0.90625 0
-0.53125 -0.875 0
-0.5 -0.875 0
-0.5 -1 0
-0.46875 -1 0
-0.5 -0.96875 0
-0.46875 -0.96875 0
-0.46875 -1 0
-0.4375 -1 0
-0.46875 -0.96875 0
-0.4375 -0.96875 0
-0.5 -0.96875 0
-0.46875 -0.96875 0
-0.5 -0.9375 0
-0.46875 -0.9375 0
-0.46875 -0.96875 0
-0.4375 -0.96875 0
-0.46875 -0.9375 0
-0.4375 -0.9375 0
-0.4375 -1 0
-0.40625 -1 0
-0.4375 -0.96875 0
-0.40625 -0.96875 0
-0.40625 -1 0
-0.375 -1 0
-0.40625 -0.96875 0
-0.375 -0.96875 0
-0.4375 -0.96875 0
-0.40625 -0.96875 0
-0.4375 -0.9375 0
-0.40625 -0.9375 0
-0.40625 -0.96875 0
-0.375 -0.96875 0
-0.40625 -0.9375 0
-0.375 -0.9375 0
-0.5 -0.9375 0
-0.46875 -0.9375 0
-0.5 -0.90625 0
-0.46875 -0.90625 0
-0.46875 -0.9375 0
-0.4375 -0.9375 0
-0.46875 -0.90625 0
-0.4375 -0.90625 0
-0.5 -0.90625 0
-0.46875 -0.90625 0
-0.5 -0.875 0
-0.46875 -0.875 0
-0.46875 -0.90625 0
-0.4375 -0.90625 0
-0.46875 -0.875 0
-0.4375 -0.875 0
-0.4375 -0.9375 0
-0.40625 -0.9375 0
-0.4375 -0.90625 0
-0.40625 -0.90625 0
-0.40625 -0.9375 0
-0.375 -0.9375 0
-0.40625 -0.90625 0
-0.375 -0.90625 0
-0.4375 -0.90625 0
-0.40625 -0.90625 0
-0.4375 -0.875 0
-0.40625 -0.875 0
-0.40625 -0.90625 0
-0.375 -0.90625 0
-0.40625 -0.875 0
-0.375 -0.875 0
-0.375 -1 0
-0.34375 -1 0
-0.375 -0.96875 0
-0.34375 -0.96875 0
-0.34375 -1 0
-0.3125 -1 0
-0.34375 -0.96875 0
-0.3125 -0.96875 0
-0.375 -0.96875 0
-0.34375 -0.96875 0
-0.375 -0.9375 0
-0.34375 -0.9375 0
-0.34375 -0.96875 0
-0.3125 -0.96875 0
-0.34375 -0.9375 0
-0.3125 -0.9375 0
-0.3125 -1 0
-0.28125 -1 0
-0.3125 -0.96875 0
-0.28125 -0.96875 0
-0.28125 -1 0
-0.25 -1 0
-0.28125 -0.96875 0
-0.25 -0.96875 0
-0.3125 -0.96875 0
-0.28125 -0.96875 0
-0.3125 -0.9375 0
-0.28125 -0.9375 0
-0.28125 -0.96875 0
-0.25 -0.96875 0
-0.28125 -0.9375 0
-0.25 -0.9375 0
-0.375 -0.9375 0
-0.34375 -0.9375 0
-0.375 -0.90625 0
-0.34375 -0.90625 0
-0.34375 -0.9375 0
-0.3125 -0.9375 0
-0.34375 -0.90625 0
-0.3125 -0.90625 0
-0.375 -0.90625 0
-0.34375 -0.90625 0
-0.375 -0.875 0
-0.34375 -0.875 0
-0.34375 -0.90625 0
-0.3125 -0.90625 0
-0.34375 -0.875 0
-0.3125 -0.875 0
-0.3125 -0.9375 0
-0.28125 -0.9375 0
-0.3125 -0.90625 0
-0.28125 -0.90625 0
-0.28125 -0.9375 0
-0.25 -0.9375 0
-0.28125 -0.90625 0
-0.25 -0.90625 0
-0.3125 -0.90625 0
-0.28125 -0.90625 0
-0.3125 -0.875 0
-0.28125 -0.875 0
-0.28125 -0.90625 0
-0.25 -0.90625 0
-0.28125 -0.875 0
-0.25 -0.875 0
-0.25 -1 0
-0.21875 -1 0
-0.25 -0.96875 0
-0.21875 -0.96875 0
-0.21875 -1 0
-0.1875 -1 0
-0.21875 -0.96875 0
-0.1875 -0.96875 0
-0.25 -0.96875 0
-0.21875 -0.96875 0
-0.25 -0.9375 0
-0.21875 -0.9375 0
-0.21875 -0.96875 0
-0.1875 -0.96875 0
-0.21875 -0.9375 0
-0.1875 -0.9375 0
-0.1875 -1 0
-0.15625 -1 0
-0.1875 -0.96875 0
-0.15625 -0.96875 0
-0.15625 -1 0
-0.125 -1 0
-0.15625 -0.96875 0
-0.125 -0.96875 0
-0.1875 -0.96875 0
-0.15625 -0.96875 0
-0.1875 -0.9375 0
-0.15625 -0.9375 0
-0.15625 -0.96875 0
-0.125 -0.96875 0
-0.15625 -0.9375 0
-0.125 -0.9375 0
-0.25 -0.9375 0
-0.21875 -0.9375 0
-0.25 -0.90625 0
-0.21875 -0.90625 0
-0.21875 -0.9375 0
-0.1875 -0.9375 0
-0.21875 -0.90625 0
-0.1875 -0.90625 0
-0.25 -0.90625 0
-0.21875 -0.90625 0
-0.25 -0.875 0
-0.21875 -0.875 0
-0.21875 -0.90625 0
-0.1875 -0.90625 0
-0.21875 -0.875 0
-0.1875 -0.875 0
-0.1875 -0.9375 0
-0.15625 -0.9375 0
-0.1875 -0.90625 0
-0.15625 -0.90625 0
-0.15625 -0.9375 0
-0.125 -0.9375 0
-0.15625 -0.90625 0
-0.125 -0.90625 0
-0.1875 -0.90625 0
-0.15625 -0.90625 0
-0.1875 -0.875 0
-0.15625 -0.875 0
-0.15625 -0.90625 0
-0.125 -0.90625 0
-0.15625 -0.875 0
-0.125 -0.875 0
-0.125 -1 0
-0.09375 -1 0
-0.125 -0.96875 0
-0.09375 -0.96875 0
-0.09375 -1 0
-0.0625 -1 0
-0.09375 -0.96875 0
-0.0625 -0.96875 0
-0.125 -0.96875 0
-0.09375 -0.96875 0
-0.125 -0.9375 0
-0.09375 -0.9375 0
-0.09375 -0.96875 0
-0.0625 -0.96875 0
-0.09375 -0.9375 0
-0.0625 -0.9375 0
-0.0625 -1 0
-0.03125 -1 0
-0.0625 -0.96875 0
-0.03125 -0.96875 0
-0.03125 -1 0
0 -1 0
-0.03125 -0.96875 0
0 -0.96875 0
-0.0625 -0.96875 0
-0.03125 -0.96875 0
-0.0625 -0.9375 0
-0.03125 -0.9375 0
-0.03125 -0.96875 0
0 -0.96875 0
-0.03125 -0.9375 0
0 -0.9375 0
-0.125 -0.9375 0
-0.09375 -0.9375 0
-0.125 -0.90625 0
-0.09375 -0.90625 0
-0.09375 -0.9375 0
-0.0625 -0.9375 0
-0.09375 -0.90625 0
-0.0625 -0.90625 0
-0.125 -0.90625 0
-0.09375 -0.90625 0
-0.125 -0.875 0
-0.09375 -0.875 0
-0.09375 -0.90625 0
-0.0625 -0.90625 0
-0.09375 -0.875 0
-0.0625 -0.875 0
-0.0625 -0.9375 0
-0.03125 -0.9375 0
-0.0625 -0.90625 0
-0.03125 -0.90625 0
-0.03125 -0.9375 0
0 -0.9375 0
-0.03125 -0.90625 0
0 -0.90625 0
-0.0625 -0.90625 0
-0.03125 -0.90625 0
-0.0625 -0.875 0
-0.03125 -0.875 0
-0.03125 -0.90625 0
0 -0.90625 0
-0.03125 -0.875 0
0 -0.875 0
0 -1 0
0.03125 -1 0
0 -0.96875 0
0.03125 -0.96875 0
0.03125 -1 0
0.0625 -1 0
0.03125 -0.96875 0
0.0625 -0.96875 0
0 -0.96875 0
0.03125 -0.96875 0
0 -0.9375 0
0.03125 -0.9375 0
0.03125 -0.96875 0
0.0625 -0.96875 0
0.03125 -0.9375 0
0.0625 -0.9375 0
0.0625 -1 0
0.09375 -1 0
0.0625 -0.96875 0
0.09375 -0.96875 0
0.09375 -1 0
0.125 -1 0
0.09375 -0.96875 0
0.125 -0.96875 0
0.0625 -0.96875 0
0.09375 -0.96875 0
0.0625 -0.9375 0
0.09375 -0.9375 0
0.09375 -0.96875 0
0.125 -0.96875 0
0.09375 -0.9375 0
0.125 -0.9375 0
0 -0.9375 0
0.03125 -0.9375 0
0 -0.90625 0
0.03125 -0.90625 0
0.03125 -0.9375 0
0.0625 -0.9375 0
0.03125 -0.90625 0
0.0625 -0.90625 0
0 -0.90625 0
0.03125 -0.90625 0
0 -0.875 0
0.03125 -0.875 0
0.03125 -0.90625 0
0.0625 -0.90625 0
0.03125 -0.875 0
[...]
POINT_DATA 16384
SCALARS solution double 1
LOOKUP_TABLE default
1 0.995185 0.995185 0.980812 0.995185 0.980785 0.980812 0.956989 0.995185 0.980812 0.980785 0.956961 0.980812 0.956989 0.956961 0.923924 0.980785 0.95694 0.956989 0.923937 0.95694 0.92388 0.923937 0.881982 0.956989 0.923937 0.923924 0.881989 0.923937 0.881982 0.881989 0.831554 0.980785 0.956961 0.95694 0.923899 0.956961 0.923924 0.923899 0.881958 0.95694 0.923899 0.92388 0.881942 0.923899 0.881958 0.881942 0.831506 0.923924 0.881989 0.881958 0.831523 0.881989 0.831554 0.831523 0.773082 0.881958 0.831523 0.831506 0.773059 0.831523 0.773082 0.773059 0.707167 0.92388 0.881921 0.881982 0.831533 0.881921 0.83147 0.831533 0.773076 0.881982 0.831533 0.831554 0.773101 0.831533 0.773076 0.773101 0.707198 0.83147 0.77301 0.773076 0.707175 0.77301 0.707107 0.707175 0.634463 0.773076 0.707175 0.707198 0.634484 0.707175 0.634463 0.634484 0.55566 0.831554 0.773101 0.773082 0.707196 0.773101 0.707198 0.707196 0.634494 0.773082 0.707196 0.707167 0.634465 0.707196 0.634494 0.634465 0.555656 0.707198 0.634484 0.634494 0.555675 0.634484 0.55566 0.555675 0.471499 0.634494 0.555675 0.555656 0.471495 0.555675 0.471499 0.471495 0.38279 0.707107 0.634393 0.634463 0.555641 0.634393 0.55557 0.555641 0.471468 0.634463 0.555641 0.55566 0.471485 0.555641 0.471468 0.471485 0.38277 0.55557 0.471397 0.471468 0.382754 0.471397 0.382683 0.382754 0.290355 0.471468 0.382754 0.38277 0.290369 0.382754 0.290355 0.290369 0.195171 0.55566 0.471485 0.471499 0.382782 0.471485 0.38277 0.382782 0.290379 0.471499 0.382782 0.38279 0.290391 0.382782 0.290379 0.290391 0.195192 0.38277 0.290369 0.290379 0.19518 0.290369 0.195171 0.19518 0.0981011 0.290379 0.19518 0.195192 0.0981116 0.19518 0.0981011 0.0981116 8.61593e-05 0.382683 0.290285 0.290355 0.195159 0.290285 0.19509 0.195159 0.0980834 0.290355 0.195159 0.195171 0.0980938 0.195159 0.0980834 0.0980938 7.18147e-05 0.19509 0.0980171 0.0980834 6.34246e-05 0.0980171 -1.83697e-16 6.34246e-05 -0.0979572 0.0980834 6.34246e-05 7.18147e-05 -0.0979508 6.34246e-05 -0.0979572 -0.0979508 -0.19503 0.195171 0.0980938 0.0981011 7.79203e-05 0.0980938 7.18147e-05 7.79203e-05 -0.097946 0.0981011 7.79203e-05 8.61593e-05 -0.0979401 7.79203e-05 -0.097946 -0.0979401 -0.195023 7.18147e-05 -0.0979508 -0.097946 -0.195027 -0.0979508 -0.19503 -0.195027 -0.290229 -0.097946 -0.195027 -0.195023 -0.290229 -0.195027 -0.290229 -0.290229 -0.382641 -1.83697e-16 -0.0980171 -0.0979572 -0.195034 -0.0980171 -0.19509 -0.195034 -0.290233 -0.0979572 -0.195034 -0.19503 -0.290231 -0.195034 -0.290233 -0.290231 -0.382637 -0.19509 -0.290285 -0.290233 -0.382637 -0.290285 -0.382683 -0.382637 -0.471356 -0.290233 -0.382637 -0.382637 -0.471358 -0.382637 -0.471356 -0.471358 -0.55554 -0.19503 -0.290231 -0.290229 -0.382637 -0.290231 -0.382637 -0.382637 -0.471359 -0.290229 -0.382637 -0.382641 -0.471369 -0.382637 -0.471359 -0.471369 -0.55556 -0.382637 -0.471358 -0.471359 -0.555543 -0.471358 -0.55554 -0.555543 -0.634377 -0.471359 -0.555543 -0.55556 -0.634405 -0.555543 -0.634377 -0.634405 -0.707144 -0.382683 -0.471397 -0.471356 -0.555535 -0.471397 -0.55557 -0.555535 -0.634365 -0.471356 -0.555535 -0.55554 -0.634371 -0.555535 -0.634365 -0.634371 -0.707093 -0.55557 -0.634393 -0.634365 -0.707085 -0.634393 -0.707107 -0.707085 -0.772995 -0.634365 -0.707085 -0.707093 -0.773006 -0.707085 -0.772995 -0.773006 -0.831474 -0.55554 -0.634371 -0.634377 -0.707102 -0.634371 -0.707093 -0.707102 -0.773018 -0.634377 -0.707102 -0.707144 -0.77308 -0.707102 -0.773018 -0.77308 -0.83158 -0.707093 -0.773006 -0.773018 -0.831492 -0.773006 -0.831474 -0.831492 -0.881961 -0.773018 -0.831492 -0.83158 -0.882083 -0.831492 -0.881961 -0.882083 -0.924107 -0.707107 -0.77301 -0.772995 -0.831461 -0.77301 -0.83147 -0.831461 -0.88192 -0.772995 -0.831461 -0.831474 -0.881934 -0.831461 -0.88192 -0.881934 -0.923901 -0.83147 -0.881921 -0.88192 -0.923885 -0.881921 -0.92388 -0.923885 -0.956952 -0.88192 -0.923885 -0.923901 -0.956971 -0.923885 -0.956952 -0.956971 -0.980826 -0.831474 -0.881934 -0.881961 -0.923941 -0.881934 -0.923901 -0.923941 -0.95703 -0.881961 -0.923941 -0.924107 -0.957252 -0.923941 -0.95703 -0.957252 -0.981203 -0.923901 -0.956971 -0.95703 -0.980913 -0.956971 -0.980826 -0.980913 -0.995365 -0.95703 -0.980913 -0.981203 -0.995737 -0.980913 -0.995365 -0.995737 -1.00072 -0.92388 -0.95694 -0.956952 -0.980804 -0.95694 -0.980785 -0.980804 -0.99521 -0.956952 -0.980804 -0.980826 -0.995235 -0.980804 -0.99521 -0.995235 -1.00006 -0.980785 -0.995185 -0.99521 -1.00003 -0.995185 -1 -1.00003 -0.995222 -0.99521 -1.00003 -1.00006 -0.995259 -1.00003 -0.995222 -0.995259 -0.980876 -0.980826 -0.995235 -0.995365 -1.00025 -0.995235 -1.00006 -1.00025 -0.995542 -0.995365 -1.00025 -1.00072 -0.996118 -1.00025 -0.995542 -0.996118 -0.98198 -1.00006 -0.995259 -0.995542 -0.981289 -0.995259 -0.980876 -0.981289 -0.957649 -0.995542 -0.981289 -0.98198 -0.958455 -0.981289 -0.957649 -0.958455 -0.925783 -1 -0.995185 -0.995222 -0.980828 -0.995185 -0.980785 -0.980828 -0.956989 -0.995222 -0.980828 -0.980876 -0.957055 -0.980828 -0.956989 -0.957055 -0.92403 -0.980785 -0.95694 -0.956989 -0.923934 -0.95694 -0.92388 -0.923934 -0.881981 -0.956989 -0.923934 -0.92403 -0.882129 -0.923934 -0.881981 -0.882129 -0.83177 -0.980876 -0.957055 -0.957649 -0.924873 -0.957055 -0.92403 -0.924873 -0.883303 -0.957649 -0.924873 -0.925783 -0.884291 -0.924873 -0.883303 -0.884291 -0.834397 -0.92403 -0.882129 -0.883303 -0.833375 -0.882129 -0.83177 -0.833375 -0.77561 -0.883303 -0.833375 -0.834397 -0.776599 -0.833375 -0.77561 -0.776599 -0.711477 -0.92388 -0.881921 -0.881981 -0.831535 -0.881921 -0.83147 -0.831535 -0.773082 -0.881981 -0.831535 -0.83177 -0.773461 -0.831535 -0.773082 -0.773461 -0.707798 -0.83147 -0.77301 -0.773082 -0.707185 -0.77301 -0.707107 -0.707185 -0.634479 -0.773082 -0.707185 -0.707798 -0.635464 -0.707185 -0.634479 -0.635464 -0.55723 -0.83177 -0.773461 -0.77561 -0.710614 -0.773461 -0.707798 -0.710614 -0.639065 -0.77561 -0.710614 -0.711477 -0.639686 -0.710614 -0.639065 -0.639686 -0.561954 -0.707798 -0.635464 -0.639065 -0.561714 -0.635464 -0.55723 -0.561714 -0.479369 -0.639065 -0.561714 -0.561954 -0.479074 -0.561714 -0.479369 -0.479074 -0.391902 -0.707107 -0.634393 -0.634479 -0.555664 -0.634393 -0.55557 -0.555664 -0.471503 -0.634479 -0.555664 -0.55723 -0.473948 -0.555664 -0.471503 -0.473948 -0.386558 -0.55557 -0.471397 -0.471503 -0.382815 -0.471397 -0.382683 -0.382815 -0.290471 -0.471503 -0.382815 -0.386558 -0.296079 -0.382815 -0.290471 -0.296079 -0.203604 -0.55723 -0.473948 -0.479369 -0.392893 -0.473948 -0.386558 -0.392893 -0.303194 -0.479369 -0.392893 -0.391902 -0.301352 -0.392893 -0.303194 -0.301352 -0.208388 -0.386558 -0.296079 -0.303194 -0.211216 -0.296079 -0.203604 -0.211216 -0.117936 -0.303194 -0.211216 -0.208388 -0.114018 -0.211216 -0.117936 -0.114018 -0.0192911 -0.382683 -0.290285 -0.290471 -0.195398 -0.290285 -0.19509 -0.195398 -0.0985816 -0.290471 -0.195398 -0.203604 -0.110297 -0.195398 -0.0985816 -0.110297 -0.0173739 -0.19509 -0.0980171 -0.0985816 -0.00108086 -0.0980171 6.12323e-17 -0.00108086 0.0959508 -0.0985816 -0.00108086 -0.0173739 0.0739156 -0.00108086 0.0959508 0.0739156 0.162312 -0.203604 -0.110297 -0.117936 -0.0243645 -0.110297 -0.0173739 -0.0243645 0.0684567 -0.117936 -0.0243645 -0.0192911 0.0747172 -0.0243645 0.0684567 0.0747172 0.166907 -0.0173739 0.0739156 0.0684567 0.159445 0.0739156 0.162312 0.159445 0.247471 0.0684567 0.159445 0.166907 0.256165 0.159445 0.247471 0.256165 0.341367 6.12323e-17 0.0980171 0.0959508 0.191231 0.0980171 0.19509 0.191231 0.283305 0.0959508 0.191231 0.162312 0.24658 0.191231 0.283305 0.24658 0.32554 0.19509 0.290285 0.283305 0.370484 0.290285 0.382683 0.370484 0.450791 0.283305 0.370484 0.32554 0.398093 0.370484 0.450791 0.398093 0.463236 0.162312 0.24658 0.247471 0.331343 0.24658 0.32554 0.331343 0.409803 0.247471 0.331343 0.341367 0.421381 0.331343 0.409803 0.421381 0.495067 0.32554 0.398093 0.409803 0.481522 0.398093 0.463236 0.481522 0.545103 0.409803 0.481522 0.495067 0.561268 0.481522 0.545103 0.561268 0.618793 0.382683 0.471397 0.450791 0.521901 0.471397 0.55557 0.521901 0.581108 0.450791 0.521901 0.463236 0.520042 0.521901 0.581108 0.520042 0.567592 0.55557 0.634393 0.581108 0.625358 0.634393 0.707107 0.625358 0.651359 0.581108 0.625358 0.567592 0.604854 0.625358 0.651359 0.604854 0.630498 0.463236 0.520042 0.545103 0.599099 0.520042 0.567592 0.599099 0.642041 0.545103 0.599099 0.618793 0.666407 0.599099 0.642041 0.666407 0.702805 0.567592 0.604854 0.642041 0.672461 0.604854 0.630498 0.672461 0.688905 0.642041 0.672461 0.702805 0.726598 0.672461 0.688905 0.726598 0.736302 0.707107 0.77301 0.651359 0.655849 0.77301 0.83147 0.655849 0.636055 0.651359 0.655849 0.630498 0.642663 0.655849 0.636055 0.642663 0.638731 0.83147 0.881921 0.636055 0.590402 0.881921 0.92388 0.590402 0.519509 0.636055 0.590402 0.638731 0.615196 0.590402 0.519509 0.615196 0.567789 0.630498 0.642663 0.688905 0.689911 0.642663 0.638731 0.689911 0.673911 0.688905 0.689911 0.736302 0.730327 0.689911 0.673911 0.730327 0.70697 0.638731 0.615196 0.673911 0.639073 0.615196 0.567789 0.639073 0.583059 0.673911 0.639073 0.70697 0.664384 0.639073 0.583059 0.664384 0.600512 0.92388 0.95694 0.519509 0.427449 0.95694 0.980785 0.427449 0.323207 0.519509 0.427449 0.567789 0.492068 0.427449 0.323207 0.492068 0.384759 0.980785 0.995185 0.323207 0.222151 0.995185 0 0.222151 0 0.323207 0.222151 0.384759 0.246112 0.222151 0 0.246112 0 0.567789 0.492068 0.583059 0.502809 0.492068 0.384759 0.502809 0.394506 0.583059 0.502809 0.600512 0.512959 0.502809 0.394506 0.512959 0.398817 0.384759 0.246112 0.394506 0.254071 0.246112 0 0.254071 0 0.394506 0.254071 0.398817 0.254525 0.254071 0 0.254525 0 0.92388 0.881942 0.881921 0.831491 0.881942 0.831506 0.831491 0.773047 0.881921 0.831491 0.83147 0.773032 0.831491 0.773047 0.773032 0.707142 0.831506 0.773059 0.773047 0.707154 0.773059 0.707167 0.707154 0.634449 0.773047 0.707154 0.707142 0.634438 0.707154 0.634449 0.634438 0.555621 0.83147 0.773032 0.77301 0.707128 0.773032 0.707142 0.707128 0.634427 0.77301 0.707128 0.707107 0.634416 0.707128 0.634427 0.634416 0.555605 0.707142 0.634438 0.634427 0.555611 0.634438 0.555621 0.555611 0.471441 0.634427 0.555611 0.555605 0.471436 0.555611 0.471441 0.471436 0.382725 0.707167 0.634465 0.634449 0.555633 0.634465 0.555656 0.555633 0.471466 0.634449 0.555633 0.555621 0.471451 0.555633 0.471466 0.471451 0.38274 0.555656 0.471495 0.471466 0.38276 0.471495 0.38279 0.38276 0.29037 0.471466 0.38276 0.38274 0.290342 0.38276 0.29037 0.290342 0.195149 0.555621 0.471451 0.471441 0.38273 0.471451 0.38274 0.38273 0.290331 0.471441 0.38273 0.382725 0.290327 0.38273 0.290331 0.290327 0.195131 0.38274 0.290342 0.290331 0.195135 0.290342 0.195149 0.195135 0.0980596 0.290331 0.195135 0.195131 0.0980551 0.195135 0.0980596 0.0980551 3.39432e-05 0.38279 0.290391 0.29037 0.195183 0.290391 0.195192 0.195183 0.098112 0.29037 0.195183 0.195149 0.0980767 0.195183 0.098112 0.0980767 6.09127e-05 0.195192 0.0981116 0.098112 8.90805e-05 0.0981116 8.61593e-05 8.90805e-05 -0.0979398 0.098112 8.90805e-05 6.09127e-05 -0.0979574 8.90805e-05 -0.0979398 -0.0979574 -0.195038 0.195149 0.0980767 0.0980596 3.86604e-05 0.0980767 6.09127e-05 3.86604e-05 -0.0979827 0.0980596 3.86604e-05 3.39432e-05 -0.0979887 3.86604e-05 -0.0979827 -0.0979887 -0.195069 6.09127e-05 -0.0979574 -0.0979827 -0.19506 -0.0979574 -0.195038 -0.19506 -0.290258 -0.0979827 -0.19506 -0.195069 -0.290271 -0.19506 -0.290258 -0.290271 -0.382679 8.61593e-05 -0.0979401 -0.0979398 -0.195029 -0.0979401 -0.195023 -0.195029 -0.290241 -0.0979398 -0.195029 -0.195038 -0.290247 -0.195029 -0.290241 -0.290247 -0.382667 -0.195023 -0.290229 -0.290241 -0.382661 -0.290229 -0.382641 -0.382661 -0.4714 -0.290241 -0.382661 -0.382667 -0.471406 -0.382661 -0.4714 -0.471406 -0.555609 -0.195038 -0.290247 -0.290258 -0.382664 -0.290247 -0.382667 -0.382664 -0.47139 -0.290258 -0.382664 -0.382679 -0.471401 -0.382664 -0.47139 -0.471401 -0.555585 -0.382667 -0.471406 -0.47139 -0.555584 -0.471406 -0.555609 -0.555584 -0.634434 -0.47139 -0.555584 -0.555585 -0.634421 -0.555584 -0.634434 -0.634421 -0.707154 -0.382641 -0.471369 -0.4714 -0.555602 -0.471369 -0.55556 -0.555602 -0.63446 -0.4714 -0.555602 -0.555609 -0.634466 -0.555602 -0.63446 -0.634466 -0.707216 -0.55556 -0.634405 -0.63446 -0.707214 -0.634405 -0.707144 -0.707214 -0.773165 -0.63446 -0.707214 -0.707216 -0.773162 -0.707214 -0.773165 -0.773162 -0.831669 -0.555609 -0.634466 -0.634434 -0.70718 -0.634466 -0.707216 -0.70718 -0.77312 -0.634434 -0.70718 -0.707154 -0.773085 -0.70718 -0.77312 -0.773085 -0.831579 -0.707216 -0.773162 -0.77312 -0.831621 -0.773162 -0.831669 -0.831621 -0.88212 -0.77312 -0.831621 -0.831579 -0.882071 -0.831621 -0.88212 -0.882071 -0.924076 -0.707144 -0.77308 -0.773165 -0.831681 -0.77308 -0.83158 -0.831681 -0.882199 -0.773165 -0.831681 -0.831669 -0.882174 -0.831681 -0.882199 -0.882174 -0.924195 -0.83158 -0.882083 -0.882199 -0.924235 -0.882083 -0.924107 -0.924235 -0.957387 -0.882199 -0.924235 -0.924195 -0.957327 -0.924235 -0.957387 -0.957327 -0.981256 -0.831669 -0.882174 -0.88212 -0.924132 -0.882174 -0.924195 -0.924132 -0.957254 -0.88212 -0.924132 -0.924076 -0.95719 -0.924132 -0.957254 -0.95719 -0.981096 -0.924195 -0.957327 -0.957254 -0.98117 -0.957327 -0.981256 -0.98117 -0.995652 -0.957254 -0.98117 -0.981096 -0.995565 -0.98117 -0.995652 -0.995565 -1.00046 -0.924107 -0.957252 -0.957387 -0.981339 -0.957252 -0.981203 -0.981339 -0.995864 -0.957387 -0.981339 -0.981256 -0.995753 -0.981339 -0.995864 -0.995753 -1.00068 -0.981203 -0.995737 -0.995864 -1.00083 -0.995737 -1.00072 -1.00083 -0.996183 -0.995864 -1.00083 -1.00068 -0.996004 -1.00083 -0.996183 -0.996004 -0.981767 -0.981256 -0.995753 -0.995652 -1.00056 -0.995753 -1.00068 -1.00056 -0.995862 -0.995652 -1.00056 -1.00046 -0.995738 -1.00056 -0.995862 -0.995738 -0.981448 -1.00068 -0.996004 -0.995862 -0.981596 -0.996004 -0.981767 -0.981596 -0.957909 -0.995862 -0.981596 -0.981448 -0.957731 -0.981596 -0.957909 -0.957731 -0.924821 -1.00072 -0.996118 -0.996183 -0.981985 -0.996118 -0.98198 -0.981985 -0.958379 -0.996183 -0.981985 -0.981767 -0.958115 -0.981985 -0.958379 -0.958115 -0.925285 -0.98198 -0.958455 -0.958379 -0.925601 -0.958455 -0.925783 -0.925601 -0.88398 -0.958379 -0.925601 -0.925285 -0.883604 -0.925601 -0.88398 -0.883604 -0.833485 -0.981767 -0.958115 -0.957909 -0.925036 -0.958115 -0.925285 -0.925036 -0.8833 -0.957909 -0.925036 -0.924821 -0.883042 -0.925036 -0.8833 -0.883042 -0.832804 -0.925285 -0.883604 -0.8833 -0.833115 -0.883604 -0.833485 -0.833115 -0.774975 -0.8833 -0.833115 -0.832804 -0.774599 -0.833115 -0.774975 -0.774599 -0.708998 -0.925783 -0.884291 -0.88398 -0.833932 -0.884291 -0.834397 -0.833932 -0.775959 -0.88398 -0.833932 -0.833485 -0.775426 -0.833932 -0.775959 -0.775426 -0.710002 -0.834397 -0.776599 -0.775959 -0.710642 -0.776599 -0.711477 -0.710642 -0.638639 -0.775959 -0.710642 -0.710002 -0.637866 -0.710642 -0.638639 -0.637866 -0.559737 -0.833485 -0.775426 -0.774975 -0.709453 -0.775426 -0.710002 -0.709453 -0.637199 -0.774975 -0.709453 -0.708998 -0.636648 -0.709453 -0.637199 -0.636648 -0.558261 -0.710002 -0.637866 -0.637199 -0.558928 -0.637866 -0.559737 -0.558928 -0.475418 -0.637199 -0.558928 -0.558261 -0.47461 -0.558928 -0.475418 -0.47461 -0.386524 -0.711477 -0.639686 -0.638639 -0.560678 -0.639686 -0.561954 -0.560678 -0.477549 -0.638639 -0.560678 -0.559737 -0.4764 -0.560678 -0.477549 -0.4764 -0.388694 -0.561954 -0.479074 -0.477549 -0.390101 -0.479074 -0.391902 -0.390101 -0.299233 -0.477549 -0.390101 -0.388694 -0.29751 -0.390101 -0.299233 -0.29751 -0.203781 -0.559737 -0.4764 -0.475418 -0.387505 -0.4764 -0.388694 -0.387505 -0.296069 -0.475418 -0.387505 -0.386524 -0.29488 -0.387505 -0.296069 -0.29488 -0.200594 -0.388694 -0.29751 -0.296069 -0.202035 -0.29751 -0.203781 -0.202035 -0.10636 -0.296069 -0.202035 -0.200594 -0.104614 -0.202035 -0.10636 -0.104614 -0.00791154 -0.391902 -0.301352 -0.299233 -0.205889 -0.301352 -0.208388 -0.205889 -0.111048 -0.299233 -0.205889 -0.203781 -0.108476 -0.205889 -0.111048 -0.108476 -0.012594 -0.208388 -0.114018 -0.111048 -0.0157217 -0.114018 -0.0192911 -0.0157217 0.079052 -0.111048 -0.0157217 -0.012594 0.0828458 -0.0157217 0.079052 0.0828458 0.176808 -0.203781 -0.108476 -0.10636 -0.0100275 -0.108476 -0.012594 -0.0100275 0.0859596 -0.10636 -0.0100275 -0.00791154 0.0885227 -0.0100275 0.0859596 0.0885227 0.183691 -0.012594 0.0828458 0.0859596 0.180586 0.0828458 0.176808 0.180586 0.272832 0.0859596 0.180586 0.183691 0.276592 0.180586 0.272832 0.276592 0.366231 -0.0192911 0.0747172 0.079052 0.172215 0.0747172 0.166907 0.172215 0.262694 0.079052 0.172215 0.176808 0.268249 0.172215 0.262694 0.268249 0.35612 0.166907 0.256165 0.262694 0.3494 0.256165 0.341367 0.3494 0.431238 0.262694 0.3494 0.35612 0.439373 0.3494 0.431238 0.439373 0.516964 0.176808 0.268249 0.272832 0.361678 0.268249 0.35612 0.361678 0.44611 0.272832 0.361678 0.366231 0.451623 0.361678 0.44611 0.451623 0.5318 0.35612 0.439373 0.44611 0.525126 0.439373 0.516964 0.525126 0.597736 0.44611 0.525126 0.5318 0.605815 0.525126 0.597736 0.605815 0.672746 0.341367 0.421381 0.431238 0.507105 0.421381 0.495067 0.507105 0.575891 0.431238 0.507105 0.516964 0.587851 0.507105 0.575891 0.587851 0.650997 0.495067 0.561268 0.575891 0.63648 0.561268 0.618793 0.63648 0.687747 0.575891 0.63648 0.650997 0.705367 0.63648 0.687747 0.705367 0.749923 0.516964 0.587851 0.597736 0.662966 0.587851 0.650997 0.662966 0.71986 0.597736 0.662966 0.672746 0.731695 0.662966 0.71986 0.731695 0.781791 0.650997 0.705367 0.71986 0.767472 0.705367 0.749923 0.767472 0.804867 0.71986 0.767472 0.781791 0.82219 0.767472 0.804867 0.82219 0.852065 0.618793 0.666407 0.687747 0.728548 0.666407 0.702805 0.728548 0.757708 0.687747 0.728548 0.749923 0.783617 0.728548 0.757708 0.783617 0.80538 0.702805 0.726598 0.757708 0.773999 0.726598 0.736302 0.773999 0.776115 0.757708 0.773999 0.80538 0.814109 0.773999 0.776115 0.814109 0.808646 0.749923 0.783617 0.804867 0.831111 0.783617 0.80538 0.831111 0.845262 0.804867 0.831111 0.852065 0.870605 0.831111 0.845262 0.870605 0.877005 0.80538 0.814109 0.845262 0.846356 0.814109 0.808646 0.846356 0.833387 0.845262 0.846356 0.877005 0.870448 0.846356 0.833387 0.870448 0.850095 0.736302 0.730327 0.776115 0.762648 0.730327 0.70697 0.762648 0.732045 0.776115 0.762648 0.808646 0.787749 0.762648 0.732045 0.787749 0.750062 0.70697 0.664384 0.732045 0.682582 0.664384 0.600512 0.682582 0.612319 0.732045 0.682582 0.750062 0.694072 0.682582 0.612319 0.694072 0.618059 0.808646 0.787749 0.833387 0.805285 0.787749 0.750062 0.805285 0.760886 0.833387 0.805285 0.850095 0.81506 0.805285 0.760886 0.81506 0.764381 0.750062 0.694072 0.760886 0.698895 0.694072 0.618059 0.698895 0.61784 0.760886 0.698895 0.764381 0.69699 0.698895 0.61784 0.69699 0.611674 0.600512 0.512959 0.612319 0.519039 0.512959 0.398817 0.519039 0.40016 0.612319 0.519039 0.618059 0.520044 0.519039 0.40016 0.520044 0.397716 0.398817 0.254525 0.40016 0.252604 0.254525 0 0.252604 0 0.40016 0.252604 0.397716 0.248341 0.252604 0 0.248341 0 0.618059 0.520044 0.61784 0.516018 0.520044 0.397716 0.516018 0.391427 0.61784 0.516018 0.611674 0.507021 0.516018 0.391427 0.507021 0.381365 0.397716 0.248341 0.391427 0.241692 0.248341 0 0.241692 0 0.391427 0.241692 0.381365 0.232714 0.241692 0 0.232714 0 0.707107 0.634416 0.634393 0.555594 0.634416 0.555605 0.555594 0.471431 0.634393 0.555594 0.55557 0.47142 0.555594 0.471431 0.47142 0.382717 0.555605 0.471436 0.471431 0.382723 0.471436 0.382725 0.382723 0.290325 0.471431 0.382723 0.382717 0.290322 0.382723 0.290325 0.290322 0.195128 0.55557 0.47142 0.471397 0.382707 0.47142 0.382717 0.382707 0.290317 0.471397 0.382707 0.382683 0.290308 0.382707 0.290317 0.290308 0.195121 0.382717 0.290322 0.290317 0.195125 0.290322 0.195128 0.195125 0.0980512 0.290317 0.195125 0.195121 0.0980494 0.195125 0.0980512 0.0980494 2.98083e-05 0.382725 0.290327 0.290325 0.195129 0.290327 0.195131 0.195129 0.098053 0.290325 0.195129 0.195128 0.0980528 0