# vtk DataFile Version 3.0
#This file was generated by the deal.II library on 2020/5/26 at 18:42:28
ASCII
DATASET UNSTRUCTURED_GRID

POINTS 6808 double
0 0 0
0.0625 0 0
0 0.0625 0
0.0625 0.0625 0
0.0625 0 0
0.125 0 0
0.0625 0.0625 0
0.125 0.0625 0
0.9375 0 0
1 0 0
0.9375 0.0625 0
1 0.0625 0
0 0.0625 0
0.0625 0.0625 0
0 0.125 0
0.0625 0.125 0
0.9375 0.0625 0
1 0.0625 0
0.9375 0.125 0
1 0.125 0
0 0.125 0
0.0625 0.125 0
0 0.1875 0
0.0625 0.1875 0
0.9375 0.125 0
1 0.125 0
0.9375 0.1875 0
1 0.1875 0
0 0.1875 0
0.0625 0.1875 0
0 0.25 0
0.0625 0.25 0
0.9375 0.1875 0
1 0.1875 0
0.9375 0.25 0
1 0.25 0
0 0.25 0
0.0625 0.25 0
0 0.3125 0
0.0625 0.3125 0
0.0625 0.25 0
0.125 0.25 0
0.0625 0.3125 0
0.125 0.3125 0
0.875 0.25 0
0.9375 0.25 0
0.875 0.3125 0
0.9375 0.3125 0
0.9375 0.25 0
1 0.25 0
0.9375 0.3125 0
1 0.3125 0
0 0.3125 0
0.0625 0.3125 0
0 0.375 0
0.0625 0.375 0
0.0625 0.3125 0
0.125 0.3125 0
0.0625 0.375 0
0.125 0.375 0
0.125 0.3125 0
0.1875 0.3125 0
0.125 0.375 0
0.1875 0.375 0
0.8125 0.3125 0
0.875 0.3125 0
0.8125 0.375 0
0.875 0.375 0
0.875 0.3125 0
0.9375 0.3125 0
0.875 0.375 0
0.9375 0.375 0
0.9375 0.3125 0
1 0.3125 0
0.9375 0.375 0
1 0.375 0
0 0.375 0
0.0625 0.375 0
0 0.4375 0
0.0625 0.4375 0
0.0625 0.375 0
0.125 0.375 0
0.0625 0.4375 0
0.125 0.4375 0
0.125 0.375 0
0.1875 0.375 0
0.125 0.4375 0
0.1875 0.4375 0
0.1875 0.375 0
0.25 0.375 0
0.1875 0.4375 0
0.25 0.4375 0
0.8125 0.375 0
0.875 0.375 0
0.8125 0.4375 0
0.875 0.4375 0
0.875 0.375 0
0.9375 0.375 0
0.875 0.4375 0
0.9375 0.4375 0
0.9375 0.375 0
1 0.375 0
0.9375 0.4375 0
1 0.4375 0
0 0.4375 0
0.0625 0.4375 0
0 0.5 0
0.0625 0.5 0
0.0625 0.4375 0
0.125 0.4375 0
0.0625 0.5 0
0.125 0.5 0
0.125 0.4375 0
0.1875 0.4375 0
0.125 0.5 0
0.1875 0.5 0
0.1875 0.4375 0
0.25 0.4375 0
0.1875 0.5 0
0.25 0.5 0
0.25 0.4375 0
0.3125 0.4375 0
0.25 0.5 0
0.3125 0.5 0
0.3125 0.4375 0
0.375 0.4375 0
0.3125 0.5 0
0.375 0.5 0
0.625 0.4375 0
0.6875 0.4375 0
0.625 0.5 0
0.6875 0.5 0
0.6875 0.4375 0
0.75 0.4375 0
0.6875 0.5 0
0.75 0.5 0
0.75 0.4375 0
0.8125 0.4375 0
0.75 0.5 0
0.8125 0.5 0
0.8125 0.4375 0
0.875 0.4375 0
0.8125 0.5 0
0.875 0.5 0
0.875 0.4375 0
0.9375 0.4375 0
0.875 0.5 0
0.9375 0.5 0
0.9375 0.4375 0
1 0.4375 0
0.9375 0.5 0
1 0.5 0
0 0.5 0
0.0625 0.5 0
0 0.5625 0
0.0625 0.5625 0
0.0625 0.5 0
0.125 0.5 0
0.0625 0.5625 0
0.125 0.5625 0
0.125 0.5 0
0.1875 0.5 0
0.125 0.5625 0
0.1875 0.5625 0
0.1875 0.5 0
0.25 0.5 0
0.1875 0.5625 0
0.25 0.5625 0
0.25 0.5 0
0.3125 0.5 0
0.25 0.5625 0
0.3125 0.5625 0
0.3125 0.5 0
0.375 0.5 0
0.3125 0.5625 0
0.375 0.5625 0
0.375 0.5 0
0.4375 0.5 0
0.375 0.5625 0
0.4375 0.5625 0
0.4375 0.5 0
0.5 0.5 0
0.4375 0.5625 0
0.5 0.5625 0
0.5 0.5 0
0.5625 0.5 0
0.5 0.5625 0
0.5625 0.5625 0
0.5625 0.5 0
0.625 0.5 0
0.5625 0.5625 0
0.625 0.5625 0
0.625 0.5 0
0.6875 0.5 0
0.625 0.5625 0
0.6875 0.5625 0
0.6875 0.5 0
0.75 0.5 0
0.6875 0.5625 0
0.75 0.5625 0
0.75 0.5 0
0.8125 0.5 0
0.75 0.5625 0
0.8125 0.5625 0
0.8125 0.5 0
0.875 0.5 0
0.8125 0.5625 0
0.875 0.5625 0
0.875 0.5 0
0.9375 0.5 0
0.875 0.5625 0
0.9375 0.5625 0
0.9375 0.5 0
1 0.5 0
0.9375 0.5625 0
1 0.5625 0
0 0.5625 0
0.0625 0.5625 0
0 0.625 0
0.0625 0.625 0
0.0625 0.5625 0
0.125 0.5625 0
0.0625 0.625 0
0.125 0.625 0
0.125 0.5625 0
0.1875 0.5625 0
0.125 0.625 0
0.1875 0.625 0
0.1875 0.5625 0
0.25 0.5625 0
0.1875 0.625 0
0.25 0.625 0
0.25 0.5625 0
0.3125 0.5625 0
0.25 0.625 0
0.3125 0.625 0
0.3125 0.5625 0
0.375 0.5625 0
0.3125 0.625 0
0.375 0.625 0
0.375 0.5625 0
0.4375 0.5625 0
0.375 0.625 0
0.4375 0.625 0
0.4375 0.5625 0
0.5 0.5625 0
0.4375 0.625 0
0.5 0.625 0
0.5 0.5625 0
0.5625 0.5625 0
0.5 0.625 0
0.5625 0.625 0
0.5625 0.5625 0
0.625 0.5625 0
0.5625 0.625 0
0.625 0.625 0
0.625 0.5625 0
0.6875 0.5625 0
0.625 0.625 0
0.6875 0.625 0
0.6875 0.5625 0
0.75 0.5625 0
0.6875 0.625 0
0.75 0.625 0
0.75 0.5625 0
0.8125 0.5625 0
0.75 0.625 0
0.8125 0.625 0
0.8125 0.5625 0
0.875 0.5625 0
0.8125 0.625 0
0.875 0.625 0
0.875 0.5625 0
0.9375 0.5625 0
0.875 0.625 0
0.9375 0.625 0
0.9375 0.5625 0
1 0.5625 0
0.9375 0.625 0
1 0.625 0
0 0.625 0
0.0625 0.625 0
0 0.6875 0
0.0625 0.6875 0
0.0625 0.625 0
0.125 0.625 0
0.0625 0.6875 0
0.125 0.6875 0
0.125 0.625 0
0.1875 0.625 0
0.125 0.6875 0
0.1875 0.6875 0
0.1875 0.625 0
0.25 0.625 0
0.1875 0.6875 0
0.25 0.6875 0
0.25 0.625 0
0.3125 0.625 0
0.25 0.6875 0
0.3125 0.6875 0
0.3125 0.625 0
0.375 0.625 0
0.3125 0.6875 0
0.375 0.6875 0
0.375 0.625 0
0.4375 0.625 0
0.375 0.6875 0
0.4375 0.6875 0
0.4375 0.625 0
0.5 0.625 0
0.4375 0.6875 0
0.5 0.6875 0
0.5 0.625 0
0.5625 0.625 0
0.5 0.6875 0
0.5625 0.6875 0
0.5625 0.625 0
0.625 0.625 0
0.5625 0.6875 0
0.625 0.6875 0
0.625 0.625 0
0.6875 0.625 0
0.625 0.6875 0
0.6875 0.6875 0
0.6875 0.625 0
0.75 0.625 0
0.6875 0.6875 0
0.75 0.6875 0
0.75 0.625 0
0.8125 0.625 0
0.75 0.6875 0
0.8125 0.6875 0
0.8125 0.625 0
0.875 0.625 0
0.8125 0.6875 0
0.875 0.6875 0
0.875 0.625 0
0.9375 0.625 0
0.875 0.6875 0
0.9375 0.6875 0
0.9375 0.625 0
1 0.625 0
0.9375 0.6875 0
1 0.6875 0
0 0.6875 0
0.0625 0.6875 0
0 0.75 0
0.0625 0.75 0
0.0625 0.6875 0
0.125 0.6875 0
0.0625 0.75 0
0.125 0.75 0
0.125 0.6875 0
0.1875 0.6875 0
0.125 0.75 0
0.1875 0.75 0
0.1875 0.6875 0
0.25 0.6875 0
0.1875 0.75 0
0.25 0.75 0
0.25 0.6875 0
0.3125 0.6875 0
0.25 0.75 0
0.3125 0.75 0
0.3125 0.6875 0
0.375 0.6875 0
0.3125 0.75 0
0.375 0.75 0
0.375 0.6875 0
0.4375 0.6875 0
0.375 0.75 0
0.4375 0.75 0
0.4375 0.6875 0
0.5 0.6875 0
0.4375 0.75 0
0.5 0.75 0
0.5 0.6875 0
0.5625 0.6875 0
0.5 0.75 0
0.5625 0.75 0
0.5625 0.6875 0
0.625 0.6875 0
0.5625 0.75 0
0.625 0.75 0
0.625 0.6875 0
0.6875 0.6875 0
0.625 0.75 0
0.6875 0.75 0
0.6875 0.6875 0
0.75 0.6875 0
0.6875 0.75 0
0.75 0.75 0
0.75 0.6875 0
0.8125 0.6875 0
0.75 0.75 0
0.8125 0.75 0
0.8125 0.6875 0
0.875 0.6875 0
0.8125 0.75 0
0.875 0.75 0
0.875 0.6875 0
0.9375 0.6875 0
0.875 0.75 0
0.9375 0.75 0
0.9375 0.6875 0
1 0.6875 0
0.9375 0.75 0
1 0.75 0
0 0.75 0
0.0625 0.75 0
0 0.8125 0
0.0625 0.8125 0
0.0625 0.75 0
0.125 0.75 0
0.0625 0.8125 0
0.125 0.8125 0
0.125 0.75 0
0.1875 0.75 0
0.125 0.8125 0
0.1875 0.8125 0
0.1875 0.75 0
0.25 0.75 0
0.1875 0.8125 0
0.25 0.8125 0
0.25 0.75 0
0.3125 0.75 0
0.25 0.8125 0
0.3125 0.8125 0
0.3125 0.75 0
0.375 0.75 0
0.3125 0.8125 0
0.375 0.8125 0
0.375 0.75 0
0.4375 0.75 0
0.375 0.8125 0
0.4375 0.8125 0
0.4375 0.75 0
0.5 0.75 0
0.4375 0.8125 0
0.5 0.8125 0
0.5 0.75 0
0.5625 0.75 0
0.5 0.8125 0
0.5625 0.8125 0
0.5625 0.75 0
0.625 0.75 0
0.5625 0.8125 0
0.625 0.8125 0
0.625 0.75 0
0.6875 0.75 0
0.625 0.8125 0
0.6875 0.8125 0
0.6875 0.75 0
0.75 0.75 0
0.6875 0.8125 0
0.75 0.8125 0
0.75 0.75 0
0.8125 0.75 0
0.75 0.8125 0
0.8125 0.8125 0
0.8125 0.75 0
0.875 0.75 0
0.8125 0.8125 0
0.875 0.8125 0
0.875 0.75 0
0.9375 0.75 0
0.875 0.8125 0
0.9375 0.8125 0
0.9375 0.75 0
1 0.75 0
0.9375 0.8125 0
1 0.8125 0
0 0.8125 0
0.0625 0.8125 0
0 0.875 0
0.0625 0.875 0
0.0625 0.8125 0
0.125 0.8125 0
0.0625 0.875 0
0.125 0.875 0
0.125 0.8125 0
0.1875 0.8125 0
0.125 0.875 0
0.1875 0.875 0
0.1875 0.8125 0
0.25 0.8125 0
0.1875 0.875 0
0.25 0.875 0
0.25 0.8125 0
0.3125 0.8125 0
0.25 0.875 0
0.3125 0.875 0
0.3125 0.8125 0
0.375 0.8125 0
0.3125 0.875 0
0.375 0.875 0
0.375 0.8125 0
0.4375 0.8125 0
0.375 0.875 0
0.4375 0.875 0
0.4375 0.8125 0
0.5 0.8125 0
0.4375 0.875 0
0.5 0.875 0
0.5 0.8125 0
0.5625 0.8125 0
0.5 0.875 0
0.5625 0.875 0
0.5625 0.8125 0
0.625 0.8125 0
0.5625 0.875 0
0.625 0.875 0
0.625 0.8125 0
0.6875 0.8125 0
0.625 0.875 0
0.6875 0.875 0
0.6875 0.8125 0
0.75 0.8125 0
0.6875 0.875 0
0.75 0.875 0
0.75 0.8125 0
0.8125 0.8125 0
0.75 0.875 0
0.8125 0.875 0
0.8125 0.8125 0
0.875 0.8125 0
0.8125 0.875 0
0.875 0.875 0
0.875 0.8125 0
0.9375 0.8125 0
0.875 0.875 0
0.9375 0.875 0
0.9375 0.8125 0
1 0.8125 0
0.9375 0.875 0
1 0.875 0
0 0.875 0
0.0625 0.875 0
0 0.9375 0
0.0625 0.9375 0
0.0625 0.875 0
0.125 0.875 0
0.0625 0.9375 0
0.125 0.9375 0
0.125 0.875 0
0.1875 0.875 0
0.125 0.9375 0
0.1875 0.9375 0
0.1875 0.875 0
0.25 0.875 0
0.1875 0.9375 0
0.25 0.9375 0
0.25 0.875 0
0.3125 0.875 0
0.25 0.9375 0
0.3125 0.9375 0
0.3125 0.875 0
0.375 0.875 0
0.3125 0.9375 0
0.375 0.9375 0
0.375 0.875 0
0.4375 0.875 0
0.375 0.9375 0
0.4375 0.9375 0
0.4375 0.875 0
0.5 0.875 0
0.4375 0.9375 0
0.5 0.9375 0
0.5 0.875 0
0.5625 0.875 0
0.5 0.9375 0
0.5625 0.9375 0
0.5625 0.875 0
0.625 0.875 0
0.5625 0.9375 0
0.625 0.9375 0
0.625 0.875 0
0.6875 0.875 0
0.625 0.9375 0
0.6875 0.9375 0
0.6875 0.875 0
0.75 0.875 0
0.6875 0.9375 0
0.75 0.9375 0
0.75 0.875 0
0.8125 0.875 0
0.75 0.9375 0
0.8125 0.9375 0
0.8125 0.875 0
0.875 0.875 0
0.8125 0.9375 0
0.875 0.9375 0
0.875 0.875 0
0.9375 0.875 0
0.875 0.9375 0
0.9375 0.9375 0
0.9375 0.875 0
1 0.875 0
0.9375 0.9375 0
1 0.9375 0
0 0.9375 0
0.0625 0.9375 0
0 1 0
0.0625 1 0
0.0625 0.9375 0
0.125 0.9375 0
0.0625 1 0
0.125 1 0
0.125 0.9375 0
0.1875 0.9375 0
0.125 1 0
0.1875 1 0
0.1875 0.9375 0
0.25 0.9375 0
0.1875 1 0
0.25 1 0
0.25 0.9375 0
0.3125 0.9375 0
0.25 1 0
0.3125 1 0
0.3125 0.9375 0
0.375 0.9375 0
0.3125 1 0
0.375 1 0
0.375 0.9375 0
0.4375 0.9375 0
0.375 1 0
0.4375 1 0
0.4375 0.9375 0
0.5 0.9375 0
0.4375 1 0
0.5 1 0
0.5 0.9375 0
0.5625 0.9375 0
0.5 1 0
0.5625 1 0
0.5625 0.9375 0
0.625 0.9375 0
0.5625 1 0
0.625 1 0
0.625 0.9375 0
0.6875 0.9375 0
0.625 1 0
0.6875 1 0
0.6875 0.9375 0
0.75 0.9375 0
0.6875 1 0
0.75 1 0
0.75 0.9375 0
0.8125 0.9375 0
0.75 1 0
0.8125 1 0
0.8125 0.9375 0
0.875 0.9375 0
0.8125 1 0
0.875 1 0
0.875 0.9375 0
0.9375 0.9375 0
0.875 1 0
0.9375 1 0
0.9375 0.9375 0
1 0.9375 0
0.9375 1 0
1 1 0
0.25 0 0
0.28125 0 0
0.25 0.03125 0
0.28125 0.03125 0
0.28125 0 0
0.3125 0 0
0.28125 0.03125 0
0.3125 0.03125 0
0.25 0.03125 0
0.28125 0.03125 0
0.25 0.0625 0
0.28125 0.0625 0
0.28125 0.03125 0
0.3125 0.03125 0
0.28125 0.0625 0
0.3125 0.0625 0
0.3125 0 0
0.34375 0 0
0.3125 0.03125 0
0.34375 0.03125 0
0.65625 0 0
0.6875 0 0
0.65625 0.03125 0
0.6875 0.03125 0
0.6875 0 0
0.71875 0 0
0.6875 0.03125 0
0.71875 0.03125 0
0.71875 0 0
0.75 0 0
0.71875 0.03125 0
0.75 0.03125 0
0.6875 0.03125 0
0.71875 0.03125 0
0.6875 0.0625 0
0.71875 0.0625 0
0.71875 0.03125 0
0.75 0.03125 0
0.71875 0.0625 0
0.75 0.0625 0
0.75 0 0
[...]
POINT_DATA 6808
SCALARS solution double 1
LOOKUP_TABLE default
0 0 0 -5.55322e-07 0 0 -5.55322e-07 -1.16382e-06 0 0 -1.33615e-06 0 0 -5.55322e-07 0 -1.05795e-06 -1.33615e-06 0 -2.43401e-06 0 0 -1.05795e-06 0 -1.45952e-06 -2.43401e-06 0 -3.1407e-06 0 0 -1.45952e-06 0 -1.72616e-06 -3.1407e-06 0 -3.42906e-06 0 0 -1.72616e-06 0 -1.84788e-06 -1.72616e-06 -3.60079e-06 -1.84788e-06 -3.82764e-06 -7.20719e-06 -3.42906e-06 -6.9685e-06 -3.37394e-06 -3.42906e-06 0 -3.37394e-06 0 0 -1.84788e-06 0 -1.84064e-06 -1.84788e-06 -3.82764e-06 -1.84064e-06 -3.77983e-06 -3.82764e-06 -6.08682e-06 -3.77983e-06 -5.91791e-06 -1.09857e-05 -6.9685e-06 -9.66801e-06 -6.29722e-06 -6.9685e-06 -3.37394e-06 -6.29722e-06 -3.09609e-06 -3.37394e-06 0 -3.09609e-06 0 0 -1.84064e-06 0 -1.73533e-06 -1.84064e-06 -3.77983e-06 -1.73533e-06 -3.53316e-06 -3.77983e-06 -5.91791e-06 -3.53316e-06 -5.44925e-06 -5.91791e-06 -8.35256e-06 -5.44925e-06 -7.51926e-06 -9.66801e-06 -6.29722e-06 -8.1865e-06 -5.43976e-06 -6.29722e-06 -3.09609e-06 -5.43976e-06 -2.70718e-06 -3.09609e-06 0 -2.70718e-06 0 0 -1.73533e-06 0 -1.56655e-06 -1.73533e-06 -3.53316e-06 -1.56655e-06 -3.16531e-06 -3.53316e-06 -5.44925e-06 -3.16531e-06 -4.8191e-06 -5.44925e-06 -7.51926e-06 -4.8191e-06 -6.52856e-06 -7.51926e-06 -9.73275e-06 -6.52856e-06 -8.25378e-06 -9.73275e-06 -1.19831e-05 -8.25378e-06 -9.8921e-06 -1.50182e-05 -1.32483e-05 -1.17971e-05 -1.0554e-05 -1.32483e-05 -1.08594e-05 -1.0554e-05 -8.8097e-06 -1.08594e-05 -8.1865e-06 -8.8097e-06 -6.75955e-06 -8.1865e-06 -5.43976e-06 -6.75955e-06 -4.55486e-06 -5.43976e-06 -2.70718e-06 -4.55486e-06 -2.28702e-06 -2.70718e-06 0 -2.28702e-06 0 0 -1.56655e-06 0 -1.36409e-06 -1.56655e-06 -3.16531e-06 -1.36409e-06 -2.73892e-06 -3.16531e-06 -4.8191e-06 -2.73892e-06 -4.12665e-06 -4.8191e-06 -6.52856e-06 -4.12665e-06 -5.51124e-06 -6.52856e-06 -8.25378e-06 -5.51124e-06 -6.84791e-06 -8.25378e-06 -9.8921e-06 -6.84791e-06 -8.05515e-06 -9.8921e-06 -1.12681e-05 -8.05515e-06 -9.01647e-06 -1.12681e-05 -1.21555e-05 -9.01647e-06 -9.60069e-06 -1.21555e-05 -1.23572e-05 -9.60069e-06 -9.70118e-06 -1.23572e-05 -1.17971e-05 -9.70118e-06 -9.276e-06 -1.17971e-05 -1.0554e-05 -9.276e-06 -8.36244e-06 -1.0554e-05 -8.8097e-06 -8.36244e-06 -7.05686e-06 -8.8097e-06 -6.75955e-06 -7.05686e-06 -5.47607e-06 -6.75955e-06 -4.55486e-06 -5.47607e-06 -3.72496e-06 -4.55486e-06 -2.28702e-06 -3.72496e-06 -1.88187e-06 -2.28702e-06 0 -1.88187e-06 0 0 -1.36409e-06 0 -1.14948e-06 -1.36409e-06 -2.73892e-06 -1.14948e-06 -2.29661e-06 -2.73892e-06 -4.12665e-06 -2.29661e-06 -3.43253e-06 -4.12665e-06 -5.51124e-06 -3.43253e-06 -4.53541e-06 -5.51124e-06 -6.84791e-06 -4.53541e-06 -5.56509e-06 -6.84791e-06 -8.05515e-06 -5.56509e-06 -6.46086e-06 -8.05515e-06 -9.01647e-06 -6.46086e-06 -7.146e-06 -9.01647e-06 -9.60069e-06 -7.146e-06 -7.54128e-06 -9.60069e-06 -9.70118e-06 -7.54128e-06 -7.58541e-06 -9.70118e-06 -9.276e-06 -7.58541e-06 -7.25389e-06 -9.276e-06 -8.36244e-06 -7.25389e-06 -6.56605e-06 -8.36244e-06 -7.05686e-06 -6.56605e-06 -5.57664e-06 -7.05686e-06 -5.47607e-06 -5.57664e-06 -4.35799e-06 -5.47607e-06 -3.72496e-06 -4.35799e-06 -2.9826e-06 -3.72496e-06 -1.88187e-06 -2.9826e-06 -1.51301e-06 -1.88187e-06 0 -1.51301e-06 0 0 -1.14948e-06 0 -9.36133e-07 -1.14948e-06 -2.29661e-06 -9.36133e-07 -1.86335e-06 -2.29661e-06 -3.43253e-06 -1.86335e-06 -2.7683e-06 -3.43253e-06 -4.53541e-06 -2.7683e-06 -3.62919e-06 -4.53541e-06 -5.56509e-06 -3.62919e-06 -4.41321e-06 -5.56509e-06 -6.46086e-06 -4.41321e-06 -5.07655e-06 -6.46086e-06 -7.146e-06 -5.07655e-06 -5.56843e-06 -7.146e-06 -7.54128e-06 -5.56843e-06 -5.83953e-06 -7.54128e-06 -7.58541e-06 -5.83953e-06 -5.85308e-06 -7.58541e-06 -7.25389e-06 -5.85308e-06 -5.5943e-06 -7.25389e-06 -6.56605e-06 -5.5943e-06 -5.07411e-06 -6.56605e-06 -5.57664e-06 -5.07411e-06 -4.32548e-06 -5.57664e-06 -4.35799e-06 -4.32548e-06 -3.39474e-06 -4.35799e-06 -2.9826e-06 -3.39474e-06 -2.33231e-06 -2.9826e-06 -1.51301e-06 -2.33231e-06 -1.18625e-06 -1.51301e-06 0 -1.18625e-06 0 0 -9.36133e-07 0 -7.30942e-07 -9.36133e-07 -1.86335e-06 -7.30942e-07 -1.45093e-06 -1.86335e-06 -2.7683e-06 -1.45093e-06 -2.14621e-06 -2.7683e-06 -3.62919e-06 -2.14621e-06 -2.79787e-06 -3.62919e-06 -4.41321e-06 -2.79787e-06 -3.38072e-06 -4.41321e-06 -5.07655e-06 -3.38072e-06 -3.86388e-06 -5.07655e-06 -5.56843e-06 -3.86388e-06 -4.21375e-06 -5.56843e-06 -5.83953e-06 -4.21375e-06 -4.39919e-06 -5.83953e-06 -5.85308e-06 -4.39919e-06 -4.39759e-06 -5.85308e-06 -5.5943e-06 -4.39759e-06 -4.19994e-06 -5.5943e-06 -5.07411e-06 -4.19994e-06 -3.81287e-06 -5.07411e-06 -4.32548e-06 -3.81287e-06 -3.25701e-06 -4.32548e-06 -3.39474e-06 -3.25701e-06 -2.56266e-06 -3.39474e-06 -2.33231e-06 -2.56266e-06 -1.76479e-06 -2.33231e-06 -1.18625e-06 -1.76479e-06 -8.99071e-07 -1.18625e-06 0 -8.99071e-07 0 0 -7.30942e-07 0 -5.36217e-07 -7.30942e-07 -1.45093e-06 -5.36217e-07 -1.06235e-06 -1.45093e-06 -2.14621e-06 -1.06235e-06 -1.56663e-06 -2.14621e-06 -2.79787e-06 -1.56663e-06 -2.03437e-06 -2.79787e-06 -3.38072e-06 -2.03437e-06 -2.44741e-06 -3.38072e-06 -3.86388e-06 -2.44741e-06 -2.78485e-06 -3.86388e-06 -4.21375e-06 -2.78485e-06 -3.02496e-06 -4.21375e-06 -4.39919e-06 -3.02496e-06 -3.14824e-06 -4.39919e-06 -4.39759e-06 -3.14824e-06 -3.14087e-06 -4.39759e-06 -4.19994e-06 -3.14087e-06 -2.99743e-06 -4.19994e-06 -3.81287e-06 -2.99743e-06 -2.72205e-06 -3.81287e-06 -3.25701e-06 -2.72205e-06 -2.32775e-06 -3.25701e-06 -2.56266e-06 -2.32775e-06 -1.83416e-06 -2.56266e-06 -1.76479e-06 -1.83416e-06 -1.26487e-06 -1.76479e-06 -8.99071e-07 -1.26487e-06 -6.45022e-07 -8.99071e-07 0 -6.45022e-07 0 0 -5.36217e-07 0 -3.51292e-07 -5.36217e-07 -1.06235e-06 -3.51292e-07 -6.95091e-07 -1.06235e-06 -1.56663e-06 -6.95091e-07 -1.02299e-06 -1.56663e-06 -2.03437e-06 -1.02299e-06 -1.32504e-06 -2.03437e-06 -2.44741e-06 -1.32504e-06 -1.58954e-06 -2.44741e-06 -2.78485e-06 -1.58954e-06 -1.80352e-06 -2.78485e-06 -3.02496e-06 -1.80352e-06 -1.95395e-06 -3.02496e-06 -3.14824e-06 -1.95395e-06 -2.0294e-06 -3.14824e-06 -3.14087e-06 -2.0294e-06 -2.02189e-06 -3.14087e-06 -2.99743e-06 -2.02189e-06 -1.92835e-06 -2.99743e-06 -2.72205e-06 -1.92835e-06 -1.75129e-06 -2.72205e-06 -2.32775e-06 -1.75129e-06 -1.49841e-06 -2.32775e-06 -1.83416e-06 -1.49841e-06 -1.18161e-06 -1.83416e-06 -1.26487e-06 -1.18161e-06 -8.15497e-07 -1.26487e-06 -6.45022e-07 -8.15497e-07 -4.161e-07 -6.45022e-07 0 -4.161e-07 0 0 -3.51292e-07 0 -1.73704e-07 -3.51292e-07 -6.95091e-07 -1.73704e-07 -3.43454e-07 -6.95091e-07 -1.02299e-06 -3.43454e-07 -5.04906e-07 -1.02299e-06 -1.32504e-06 -5.04906e-07 -6.53046e-07 -1.32504e-06 -1.58954e-06 -6.53046e-07 -7.82147e-07 -1.58954e-06 -1.80352e-06 -7.82147e-07 -8.86009e-07 -1.80352e-06 -1.95395e-06 -8.86009e-07 -9.58507e-07 -1.95395e-06 -2.0294e-06 -9.58507e-07 -9.94347e-07 -2.0294e-06 -2.02189e-06 -9.94347e-07 -9.89876e-07 -2.02189e-06 -1.92835e-06 -9.89876e-07 -9.4371e-07 -1.92835e-06 -1.75129e-06 -9.4371e-07 -8.57029e-07 -1.75129e-06 -1.49841e-06 -8.57029e-07 -7.33455e-07 -1.49841e-06 -1.18161e-06 -7.33455e-07 -5.78606e-07 -1.18161e-06 -8.15497e-07 -5.78606e-07 -3.99485e-07 -8.15497e-07 -4.161e-07 -3.99485e-07 -2.03892e-07 -4.161e-07 0 -2.03892e-07 0 0 -1.73704e-07 0 0 -1.73704e-07 -3.43454e-07 0 0 -3.43454e-07 -5.04906e-07 0 0 -5.04906e-07 -6.53046e-07 0 0 -6.53046e-07 -7.82147e-07 0 0 -7.82147e-07 -8.86009e-07 0 0 -8.86009e-07 -9.58507e-07 0 0 -9.58507e-07 -9.94347e-07 0 0 -9.94347e-07 -9.89876e-07 0 0 -9.89876e-07 -9.4371e-07 0 0 -9.4371e-07 -8.57029e-07 0 0 -8.57029e-07 -7.33455e-07 0 0 -7.33455e-07 -5.78606e-07 0 0 -5.78606e-07 -3.99485e-07 0 0 -3.99485e-07 -2.03892e-07 0 0 -2.03892e-07 0 0 0 0 0 -1.37143e-06 -1.59141e-06 0 0 -1.59141e-06 -1.77996e-06 -1.37143e-06 -1.59141e-06 -2.7382e-06 -3.20727e-06 -1.59141e-06 -1.77996e-06 -3.20727e-06 -3.65449e-06 0 0 -1.77996e-06 -1.86075e-06 0 0 -9.44161e-06 -7.37877e-06 0 0 -7.37877e-06 -5.71485e-06 0 0 -5.71485e-06 -4.42222e-06 -7.37877e-06 -5.71485e-06 -1.43307e-05 -1.10518e-05 -5.71485e-06 -4.42222e-06 -1.10518e-05 -8.55297e-06 0 0 -4.42222e-06 -3.42257e-06 0 0 -3.42257e-06 -2.64014e-06 -4.42222e-06 -3.42257e-06 -8.55297e-06 -6.63083e-06 -3.42257e-06 -2.64014e-06 -6.63083e-06 -5.12575e-06 -1.87909e-06 -2.29064e-06 -2.77191e-06 -3.39056e-06 -2.77191e-06 -3.39056e-06 -3.60162e-06 -4.41923e-06 -3.39056e-06 -4.07903e-06 -4.41923e-06 -5.34818e-06 -2.7382e-06 -3.20727e-06 -4.07903e-06 -4.83581e-06 -4.07903e-06 -4.83581e-06 -5.34818e-06 -6.41092e-06 -1.10518e-05 -8.55297e-06 -1.56137e-05 -1.2115e-05 -1.56137e-05 -1.2115e-05 -1.90418e-05 -1.48825e-05 -8.55297e-06 -6.63083e-06 -1.2115e-05 -9.42905e-06 -6.63083e-06 -5.12575e-06 -9.42905e-06 -7.31778e-06 -1.2115e-05 -9.42905e-06 -1.48825e-05 -1.16642e-05 -9.42905e-06 -7.31778e-06 -1.16642e-05 -9.10854e-06 -3.60162e-06 -4.41923e-06 -4.3411e-06 -5.33688e-06 -4.41923e-06 -5.34818e-06 -5.33688e-06 -6.48381e-06 -4.3411e-06 -5.33688e-06 -4.96518e-06 -6.10529e-06 -5.33688e-06 -6.48381e-06 -6.10529e-06 -7.4249e-06 -5.34818e-06 -6.41092e-06 -6.48381e-06 -7.82888e-06 -6.48381e-06 -7.82888e-06 -7.4249e-06 -8.986e-06 -7.82888e-06 -9.44062e-06 -8.986e-06 -1.08828e-05 -1.90418e-05 -1.48825e-05 -2.11411e-05 -1.67329e-05 -2.11411e-05 -1.67329e-05 -2.19607e-05 -1.76778e-05 -1.48825e-05 -1.16642e-05 -1.67329e-05 -1.32509e-05 -1.16642e-05 -9.10854e-06 -1.32509e-05 -1.04351e-05 -1.67329e-05 -1.32509e-05 -1.76778e-05 -1.41839e-05 -1.32509e-05 -1.04351e-05 -1.41839e-05 -1.12854e-05 -7.4249e-06 -8.986e-06 -8.1295e-06 -9.81714e-06 -8.986e-06 -1.08828e-05 -9.81714e-06 -1.18526e-05 -8.1295e-06 -9.81714e-06 -8.5835e-06 -1.03078e-05 -9.81714e-06 -1.18526e-05 -1.03078e-05 -1.23481e-05 -1.08828e-05 -1.32677e-05 -1.18526e-05 -1.43745e-05 -1.18526e-05 -1.43745e-05 -1.23481e-05 -1.48022e-05 -3.17072e-05 -2.63526e-05 -2.87598e-05 -2.46438e-05 -2.7286e-05 -2.19607e-05 -2.63526e-05 -2.17498e-05 -2.19607e-05 -1.76778e-05 -2.17498e-05 -1.78441e-05 -2.63526e-05 -2.17498e-05 -2.46438e-05 -2.08342e-05 -2.17498e-05 -1.78441e-05 -2.08342e-05 -1.74199e-05 -8.5835e-06 -1.03078e-05 -8.79903e-06 -1.04865e-05 -1.03078e-05 -1.23481e-05 -1.04865e-05 -1.24342e-05 -8.79903e-06 -1.04865e-05 -8.8063e-06 -1.0406e-05 -1.04865e-05 -1.24342e-05 -1.0406e-05 -1.2204e-05 -1.23481e-05 -1.48022e-05 -1.24342e-05 -1.46974e-05 -1.24342e-05 -1.46974e-05 -1.2204e-05 -1.42232e-05 -1.46974e-05 -1.73258e-05 -1.42232e-05 -1.64687e-05 -1.73258e-05 -2.03327e-05 -1.64687e-05 -1.8906e-05 -2.03327e-05 -2.36404e-05 -1.8906e-05 -2.14294e-05 -3.21139e-05 -3.09478e-05 -2.73105e-05 -2.65671e-05 -3.09478e-05 -2.86514e-05 -2.65671e-05 -2.50021e-05 -2.87598e-05 -2.46438e-05 -2.57302e-05 -2.25975e-05 -2.86514e-05 -2.57302e-05 -2.50021e-05 -2.28872e-05 -2.57302e-05 -2.25975e-05 -2.28872e-05 -2.04849e-05 -2.46438e-05 -2.08342e-05 -2.25975e-05 -1.95092e-05 -2.08342e-05 -1.74199e-05 -1.95092e-05 -1.65979e-05 -2.25975e-05 -1.95092e-05 -2.04849e-05 -1.7994e-05 -1.95092e-05 -1.65979e-05 -1.7994e-05 -1.55413e-05 -1.2204e-05 -1.42232e-05 -1.17498e-05 -1.35162e-05 -1.42232e-05 -1.64687e-05 -1.35162e-05 -1.5408e-05 -1.17498e-05 -1.35162e-05 -1.11496e-05 -1.26783e-05 -1.35162e-05 -1.5408e-05 -1.26783e-05 -1.42641e-05 -1.64687e-05 -1.8906e-05 -1.5408e-05 -1.7375e-05 -1.8906e-05 -2.14294e-05 -1.7375e-05 -1.93202e-05 -1.5408e-05 -1.7375e-05 -1.42641e-05 -1.58563e-05 -1.7375e-05 -1.93202e-05 -1.58563e-05 -1.73754e-05 -2.14294e-05 -2.38354e-05 -1.93202e-05 -2.1093e-05 -2.38354e-05 -2.58203e-05 -2.1093e-05 -2.25024e-05 -1.93202e-05 -2.1093e-05 -1.73754e-05 -1.87135e-05 -2.1093e-05 -2.25024e-05 -1.87135e-05 -1.97474e-05 -2.58203e-05 -2.70544e-05 -2.25024e-05 -2.33601e-05 -2.70544e-05 -2.73105e-05 -2.33601e-05 -2.35401e-05 -2.25024e-05 -2.33601e-05 -1.97474e-05 -2.0363e-05 -2.33601e-05 -2.35401e-05 -2.0363e-05 -2.04855e-05 -2.73105e-05 -2.65671e-05 -2.35401e-05 -2.3024e-05 -2.65671e-05 -2.50021e-05 -2.3024e-05 -2.18994e-05 -2.35401e-05 -2.3024e-05 -2.04855e-05 -2.01003e-05 -2.3024e-05 -2.18994e-05 -2.01003e-05 -1.92541e-05 -2.50021e-05 -2.28872e-05 -2.18994e-05 -2.03189e-05 -2.28872e-05 -2.04849e-05 -2.03189e-05 -1.84484e-05 -2.18994e-05 -2.03189e-05 -1.92541e-05 -1.80363e-05 -2.03189e-05 -1.84484e-05 -1.80363e-05 -1.65525e-05 -1.97474e-05 -2.0363e-05 -1.74176e-05 -1.78698e-05 -2.0363e-05 -2.04855e-05 -1.78698e-05 -1.79493e-05 -1.74176e-05 -1.78698e-05 -1.54178e-05 -1.57557e-05 -1.78698e-05 -1.79493e-05 -1.57557e-05 -1.58033e-05 0 0 -9.48282e-07 -1.15295e-06 0 0 -1.15295e-06 -1.37143e-06 -9.48282e-07 -1.15295e-06 -1.87909e-06 -2.29064e-06 -1.15295e-06 -1.37143e-06 -2.29064e-06 -2.7382e-06 0 0 -2.64014e-06 -2.01478e-06 0 0 -2.01478e-06 -1.50137e-06 -2.64014e-06 -2.01478e-06 -5.12575e-06 -3.91951e-06 -2.01478e-06 -1.50137e-06 -3.91951e-06 -2.92574e-06 -1.16382e-06 -1.50482e-06 -1.71204e-06 -2.2159e-06 -1.71204e-06 -2.2159e-06 -2.21931e-06 -2.87459e-06 -2.2159e-06 -2.77191e-06 -2.87459e-06 -3.60162e-06 -5.12575e-06 -3.91951e-06 -7.31778e-06 -5.61548e-06 -3.91951e-06 -2.92574e-06 -5.61548e-06 -4.20392e-06 -7.31778e-06 -5.61548e-06 -9.10854e-06 -7.02583e-06 -5.61548e-06 -4.20392e-06 -7.02583e-06 -5.28147e-06 -9.10854e-06 -7.02583e-06 -1.04351e-05 -8.10353e-06 -7.02583e-06 -5.28147e-06 -8.10353e-06 -6.12371e-06 -1.04351e-05 -8.10353e-06 -1.12854e-05 -8.83469e-06 -8.10353e-06 -6.12371e-06 -8.83469e-06 -6.71775e-06 -4.96518e-06 -6.10529e-06 -5.45542e-06 -6.69701e-06 -6.10529e-06 -7.4249e-06 -6.69701e-06 -8.1295e-06 -5.45542e-06 -6.69701e-06 -5.80317e-06 -7.10068e-06 -6.69701e-06 -8.1295e-06 -7.10068e-06 -8.5835e-06 -1.76778e-05 -1.41839e-05 -1.78441e-05 -1.45292e-05 -1.41839e-05 -1.12854e-05 -1.45292e-05 -1.16932e-05 -1.78441e-05 -1.45292e-05 -1.74199e-05 -1.43975e-05 -1.45292e-05 -1.16932e-05 -1.43975e-05 -1.17249e-05 -2.04849e-05 -1.7994e-05 -1.84484e-05 -1.64307e-05 -1.7994e-05 -1.55413e-05 -1.64307e-05 -1.43711e-05 -1.84484e-05 -1.64307e-05 -1.65525e-05 -1.4903e-05 -1.64307e-05 -1.43711e-05 -1.4903e-05 -1.31697e-05 -1.73754e-05 -1.87135e-05 -1.56084e-05 -1.66396e-05 -1.87135e-05 -1.97474e-05 -1.66396e-05 -1.74176e-05 -1.56084e-05 -1.66396e-05 -1.40118e-05 -1.48205e-05 -1.66396e-05 -1.74176e-05 -1.48205e-05 -1.54178e-05 -2.04855e-05 -2.01003e-05 -1.79493e-05 -1.76451e-05 -2.01003e-05 -1.92541e-05 -1.76451e-05 -1.69831e-05 -1.79493e-05 -1.76451e-05 -1.58033e-05 -1.55524e-05 -1.76451e-05 -1.69831e-05 -1.55524e-05 -1.50182e-05 0 0 -5.88514e-07 -7.60466e-07 0 0 -7.60466e-07 -9.48282e-07 -5.88514e-07 -7.60466e-07 -1.16382e-06 -1.50482e-06 -7.60466e-07 -9.48282e-07 -1.50482e-06 -1.87909e-06 -2.21931e-06 -2.87459e-06 -2.67206e-06 -3.4619e-06 -2.87459e-06 -3.60162e-06 -3.4619e-06 -4.3411e-06 -2.67206e-06 -3.4619e-06 -3.05842e-06 -3.96064e-06 -3.4619e-06 -4.3411e-06 -3.96064e-06 -4.96518e-06 -3.05842e-06 -3.96064e-06 -3.36965e-06 -4.3581e-06 -3.96064e-06 -4.96518e-06 -4.3581e-06 -5.45542e-06 -3.36965e-06 -4.3581e-06 -3.60079e-06 -4.64785e-06 -4.3581e-06 -5.45542e-06 -4.64785e-06 -5.80317e-06 -1.12854e-05 -8.83469e-06 -1.16932e-05 -9.236e-06 -8.83469e-06 -6.71775e-06 -9.236e-06 -7.07118e-06 -1.16932e-05 -9.236e-06 -1.17249e-05 -9.34701e-06 -9.236e-06 -7.07118e-06 -9.34701e-06 -7.20719e-06 -5.80317e-06 -7.10068e-06 -6.01021e-06 -7.32119e-06 -7.10068e-06 -8.5835e-06 -7.32119e-06 -8.79903e-06 -6.01021e-06 -7.32119e-06 -6.08682e-06 -7.37609e-06 -7.32119e-06 -8.79903e-06 -7.37609e-06 -8.8063e-06 -1.74199e-05 -1.43975e-05 -1.65979e-05 -1.39141e-05 -1.43975e-05 -1.17249e-05 -1.39141e-05 -1.14619e-05 -1.65979e-05 -1.39141e-05 -1.55413e-05 -1.31955e-05 -1.39141e-05 -1.14619e-05 -1.31955e-05 -1.09857e-05 -8.8063e-06 -1.0406e-05 -8.64418e-06 -1.01264e-05 -1.0406e-05 -1.2204e-05 -1.01264e-05 -1.17498e-05 -8.64418e-06 -1.01264e-05 -8.35256e-06 -9.70426e-06 -1.01264e-05 -1.17498e-05 -9.70426e-06 -1.11496e-05 -8.35256e-06 -9.70426e-06 -7.96747e-06 -9.18704e-06 -7.96747e-06 -9.18704e-06 -7.51926e-06 -8.61245e-06 -9.18704e-06 -1.04629e-05 -8.61245e-06 -9.73275e-06 -1.42641e-05 -1.58563e-05 -1.31087e-05 -1.44059e-05 -1.58563e-05 -1.73754e-05 -1.44059e-05 -1.56084e-05 -1.31087e-05 -1.44059e-05 -1.19831e-05 -1.30475e-05 -1.44059e-05 -1.56084e-05 -1.30475e-05 -1.40118e-05 -1.92541e-05 -1.80363e-05 -1.69831e-05 -1.60183e-05 -1.80363e-05 -1.65525e-05 -1.60183e-05 -1.4819e-05 -1.69831e-05 -1.60183e-05 -1.50182e-05 -1.42347e-05 -1.60183e-05 -1.4819e-05 -1.42347e-05 -1.32483e-05 -1.40118e-05 -1.48205e-05 -1.25705e-05 -1.32143e-05 -1.48205e-05 -1.54178e-05 -1.32143e-05 -1.36803e-05 -1.25705e-05 -1.32143e-05 -1.12681e-05 -1.17868e-05 -1.32143e-05 -1.36803e-05 -1.17868e-05 -1.21555e-05 -1.54178e-05 -1.57557e-05 -1.36803e-05 -1.39359e-05 -1.57557e-05 -1.58033e-05 -1.39359e-05 -1.39598e-05 -1.36803e-05 -1.39359e-05 -1.21555e-05 -1.23502e-05 -1.39359e-05 -1.39598e-05 -1.23502e-05 -1.23572e-05 0 0 -1.50137e-06 -1.06629e-06 0 0 -1.06629e-06 -6.83962e-07 -1.50137e-06 -1.06629e-06 -2.92574e-06 -2.08067e-06 -1.06629e-06 -6.83962e-07 -2.08067e-06 -1.33615e-06 -5.55322e-07 -8.49554e-07 -8.16365e-07 -1.24918e-06 -8.49554e-07 -1.16382e-06 -1.24918e-06 -1.71204e-06 -8.16365e-07 -1.24918e-06 -1.05795e-06 -1.61882e-06 -1.24918e-06 -1.71204e-06 -1.61882e-06 -2.21931e-06 -2.92574e-06 -2.08067e-06 -4.20392e-06 -2.99638e-06 -2.08067e-06 -1.33615e-06 -2.99638e-06 -1.92688e-06 -4.20392e-06 -2.99638e-06 -5.28147e-06 -3.77617e-06 -2.99638e-06 -1.92688e-06 -3.77617e-06 -2.43401e-06 -1.05795e-06 -1.61882e-06 -1.27391e-06 -1.94912e-06 -1.61882e-06 -2.21931e-06 -1.94912e-06 -2.67206e-06 -1.27391e-06 -1.94912e-06 -1.45952e-06 -2.23204e-06 -1.94912e-06 -2.67206e-06 -2.23204e-06 -3.05842e-06 -5.28147e-06 -3.77617e-06 -6.12371e-06 -4.3956e-06 -3.77617e-06 -2.43401e-06 -4.3956e-06 -2.84056e-06 -6.12371e-06 -4.3956e-06 -6.71775e-06 -4.84415e-06 -4.3956e-06 -2.84056e-06 -4.84415e-06 -3.1407e-06 -1.45952e-06 -2.23204e-06 -1.61066e-06 -2.46167e-06 -2.23204e-06 -3.05842e-06 -2.46167e-06 -3.36965e-06 -1.61066e-06 -2.46167e-06 -1.72616e-06 -2.63473e-06 -2.46167e-06 -3.36965e-06 -2.63473e-06 -3.60079e-06 -6.71775e-06 -4.84415e-06 -7.07118e-06 -5.12479e-06 -4.84415e-06 -3.1407e-06 -5.12479e-06 -3.33358e-06 -7.07118e-06 -5.12479e-06 -7.20719e-06 -5.2513e-06 -5.12479e-06 -3.33358e-06 -5.2513e-06 -3.42906e-06 -3.60079e-06 -4.64785e-06 -3.75209e-06 -4.83034e-06 -4.64785e-06 -5.80317e-06 -4.83034e-06 -6.01021e-06 -3.75209e-06 -4.83034e-06 -3.82764e-06 -4.91189e-06 -4.83034e-06 -6.01021e-06 -4.91189e-06 -6.08682e-06 -1.17249e-05 -9.34701e-06 -1.14619e-05 -9.22093e-06 -9.34701e-06 -7.20719e-06 -9.22093e-06 -7.16027e-06 -1.14619e-05 -9.22093e-06 -1.09857e-05 -8.91406e-06 -9.22093e-06 -7.16027e-06 -8.91406e-06 -6.9685e-06 -6.08682e-06 -7.37609e-06 -6.04957e-06 -7.29072e-06 -7.37609e-06 -8.8063e-06 -7.29072e-06 -8.64418e-06 -6.04957e-06 -7.29072e-06 -5.91791e-06 -7.0929e-06 -7.29072e-06 -8.64418e-06 -7.0929e-06 -8.35256e-06 -1.55413e-05 -1.31955e-05 -1.43711e-05 -1.23375e-05 -1.31955e-05 -1.09857e-05 -1.23375e-05 -1.03682e-05 -1.43711e-05 -1.23375e-05 -1.31697e-05 -1.1412e-05 -1.23375e-05 -1.03682e-05 -1.1412e-05 -9.66801e-06 -1.11496e-05 -1.26783e-05 -1.04629e-05 -1.17795e-05 -1.26783e-05 -1.42641e-05 -1.17795e-05 -1.31087e-05 -1.04629e-05 -1.17795e-05 -9.73275e-06 -1.08655e-05 -1.17795e-05 -1.31087e-05 -1.08655e-05 -1.19831e-05 -1.65525e-05 -1.4903e-05 -1.4819e-05 -1.34554e-05 -1.4903e-05 -1.31697e-05 -1.34554e-05 -1.19891e-05 -1.4819e-05 -1.34554e-05 -1.32483e-05 -1.21081e-05 -1.34554e-05 -1.19891e-05 -1.21081e-05 -1.08594e-05 -1.31697e-05 -1.1412e-05 -1.19891e-05 -1.04692e-05 -1.1412e-05 -9.66801e-06 -1.04692e-05 -8.93102e-06 -1.19891e-05 -1.04692e-05 -1.08594e-05 -9.54284e-06 -1.04692e-05 -8.93102e-06 -9.54284e-06 -8.1865e-06 -1.19831e-05 -1.30475e-05 -1.09074e-05 -1.17882e-05 -1.30475e-05 -1.40118e-05 -1.17882e-05 -1.25705e-05 -1.09074e-05 -1.17882e-05 -9.8921e-06 -1.06267e-05 -1.17882e-05 -1.25705e-05 -1.06267e-05 -1.12681e-05 -1.58033e-05 -1.55524e-05 -1.39598e-05 -1.3746e-05 -1.55524e-05 -1.50182e-05 -1.3746e-05 -1.33036e-05 -1.39598e-05 -1.3746e-05 -1.23572e-05 -1.21701e-05 -1.3746e-05 -1.33036e-05 -1.21701e-05 -1.17971e-05 0 0 -3.91985e-07 -2.92501e-08 0 0 -2.92501e-08 4.36368e-07 -3.91985e-07 -2.92501e-08 -8.99395e-07 -1.70715e-07 -2.92501e-08 4.36368e-07 -1.70715e-07 8.19125e-07 -8.99395e-07 -1.70715