# vtk DataFile Version 3.0
#This file was generated by the deal.II library on 2020/5/26 at 18:42:30
ASCII
DATASET UNSTRUCTURED_GRID

POINTS 10900 double
0 0 0
0.0625 0 0
0 0.0625 0
0.0625 0.0625 0
0.0625 0 0
0.125 0 0
0.0625 0.0625 0
0.125 0.0625 0
0.9375 0 0
1 0 0
0.9375 0.0625 0
1 0.0625 0
0 0.0625 0
0.0625 0.0625 0
0 0.125 0
0.0625 0.125 0
0.9375 0.0625 0
1 0.0625 0
0.9375 0.125 0
1 0.125 0
0 0.125 0
0.0625 0.125 0
0 0.1875 0
0.0625 0.1875 0
0.9375 0.125 0
1 0.125 0
0.9375 0.1875 0
1 0.1875 0
0 0.1875 0
0.0625 0.1875 0
0 0.25 0
0.0625 0.25 0
0.9375 0.1875 0
1 0.1875 0
0.9375 0.25 0
1 0.25 0
0 0.25 0
0.0625 0.25 0
0 0.3125 0
0.0625 0.3125 0
0.0625 0.25 0
0.125 0.25 0
0.0625 0.3125 0
0.125 0.3125 0
0.875 0.25 0
0.9375 0.25 0
0.875 0.3125 0
0.9375 0.3125 0
0.9375 0.25 0
1 0.25 0
0.9375 0.3125 0
1 0.3125 0
0 0.3125 0
0.0625 0.3125 0
0 0.375 0
0.0625 0.375 0
0.0625 0.3125 0
0.125 0.3125 0
0.0625 0.375 0
0.125 0.375 0
0.125 0.3125 0
0.1875 0.3125 0
0.125 0.375 0
0.1875 0.375 0
0.8125 0.3125 0
0.875 0.3125 0
0.8125 0.375 0
0.875 0.375 0
0.875 0.3125 0
0.9375 0.3125 0
0.875 0.375 0
0.9375 0.375 0
0.9375 0.3125 0
1 0.3125 0
0.9375 0.375 0
1 0.375 0
0 0.375 0
0.0625 0.375 0
0 0.4375 0
0.0625 0.4375 0
0.0625 0.375 0
0.125 0.375 0
0.0625 0.4375 0
0.125 0.4375 0
0.125 0.375 0
0.1875 0.375 0
0.125 0.4375 0
0.1875 0.4375 0
0.1875 0.375 0
0.25 0.375 0
0.1875 0.4375 0
0.25 0.4375 0
0.8125 0.375 0
0.875 0.375 0
0.8125 0.4375 0
0.875 0.4375 0
0.875 0.375 0
0.9375 0.375 0
0.875 0.4375 0
0.9375 0.4375 0
0.9375 0.375 0
1 0.375 0
0.9375 0.4375 0
1 0.4375 0
0 0.4375 0
0.0625 0.4375 0
0 0.5 0
0.0625 0.5 0
0.0625 0.4375 0
0.125 0.4375 0
0.0625 0.5 0
0.125 0.5 0
0.125 0.4375 0
0.1875 0.4375 0
0.125 0.5 0
0.1875 0.5 0
0.1875 0.4375 0
0.25 0.4375 0
0.1875 0.5 0
0.25 0.5 0
0.25 0.4375 0
0.3125 0.4375 0
0.25 0.5 0
0.3125 0.5 0
0.3125 0.4375 0
0.375 0.4375 0
0.3125 0.5 0
0.375 0.5 0
0.625 0.4375 0
0.6875 0.4375 0
0.625 0.5 0
0.6875 0.5 0
0.6875 0.4375 0
0.75 0.4375 0
0.6875 0.5 0
0.75 0.5 0
0.75 0.4375 0
0.8125 0.4375 0
0.75 0.5 0
0.8125 0.5 0
0.8125 0.4375 0
0.875 0.4375 0
0.8125 0.5 0
0.875 0.5 0
0.875 0.4375 0
0.9375 0.4375 0
0.875 0.5 0
0.9375 0.5 0
0.9375 0.4375 0
1 0.4375 0
0.9375 0.5 0
1 0.5 0
0 0.5 0
0.0625 0.5 0
0 0.5625 0
0.0625 0.5625 0
0.0625 0.5 0
0.125 0.5 0
0.0625 0.5625 0
0.125 0.5625 0
0.125 0.5 0
0.1875 0.5 0
0.125 0.5625 0
0.1875 0.5625 0
0.1875 0.5 0
0.25 0.5 0
0.1875 0.5625 0
0.25 0.5625 0
0.25 0.5 0
0.3125 0.5 0
0.25 0.5625 0
0.3125 0.5625 0
0.3125 0.5 0
0.375 0.5 0
0.3125 0.5625 0
0.375 0.5625 0
0.375 0.5 0
0.4375 0.5 0
0.375 0.5625 0
0.4375 0.5625 0
0.4375 0.5 0
0.5 0.5 0
0.4375 0.5625 0
0.5 0.5625 0
0.5 0.5 0
0.5625 0.5 0
0.5 0.5625 0
0.5625 0.5625 0
0.5625 0.5 0
0.625 0.5 0
0.5625 0.5625 0
0.625 0.5625 0
0.625 0.5 0
0.6875 0.5 0
0.625 0.5625 0
0.6875 0.5625 0
0.6875 0.5 0
0.75 0.5 0
0.6875 0.5625 0
0.75 0.5625 0
0.75 0.5 0
0.8125 0.5 0
0.75 0.5625 0
0.8125 0.5625 0
0.8125 0.5 0
0.875 0.5 0
0.8125 0.5625 0
0.875 0.5625 0
0.875 0.5 0
0.9375 0.5 0
0.875 0.5625 0
0.9375 0.5625 0
0.9375 0.5 0
1 0.5 0
0.9375 0.5625 0
1 0.5625 0
0 0.5625 0
0.0625 0.5625 0
0 0.625 0
0.0625 0.625 0
0.0625 0.5625 0
0.125 0.5625 0
0.0625 0.625 0
0.125 0.625 0
0.125 0.5625 0
0.1875 0.5625 0
0.125 0.625 0
0.1875 0.625 0
0.1875 0.5625 0
0.25 0.5625 0
0.1875 0.625 0
0.25 0.625 0
0.25 0.5625 0
0.3125 0.5625 0
0.25 0.625 0
0.3125 0.625 0
0.3125 0.5625 0
0.375 0.5625 0
0.3125 0.625 0
0.375 0.625 0
0.375 0.5625 0
0.4375 0.5625 0
0.375 0.625 0
0.4375 0.625 0
0.4375 0.5625 0
0.5 0.5625 0
0.4375 0.625 0
0.5 0.625 0
0.5 0.5625 0
0.5625 0.5625 0
0.5 0.625 0
0.5625 0.625 0
0.5625 0.5625 0
0.625 0.5625 0
0.5625 0.625 0
0.625 0.625 0
0.625 0.5625 0
0.6875 0.5625 0
0.625 0.625 0
0.6875 0.625 0
0.6875 0.5625 0
0.75 0.5625 0
0.6875 0.625 0
0.75 0.625 0
0.75 0.5625 0
0.8125 0.5625 0
0.75 0.625 0
0.8125 0.625 0
0.8125 0.5625 0
0.875 0.5625 0
0.8125 0.625 0
0.875 0.625 0
0.875 0.5625 0
0.9375 0.5625 0
0.875 0.625 0
0.9375 0.625 0
0.9375 0.5625 0
1 0.5625 0
0.9375 0.625 0
1 0.625 0
0 0.625 0
0.0625 0.625 0
0 0.6875 0
0.0625 0.6875 0
0.0625 0.625 0
0.125 0.625 0
0.0625 0.6875 0
0.125 0.6875 0
0.125 0.625 0
0.1875 0.625 0
0.125 0.6875 0
0.1875 0.6875 0
0.1875 0.625 0
0.25 0.625 0
0.1875 0.6875 0
0.25 0.6875 0
0.25 0.625 0
0.3125 0.625 0
0.25 0.6875 0
0.3125 0.6875 0
0.3125 0.625 0
0.375 0.625 0
0.3125 0.6875 0
0.375 0.6875 0
0.375 0.625 0
0.4375 0.625 0
0.375 0.6875 0
0.4375 0.6875 0
0.4375 0.625 0
0.5 0.625 0
0.4375 0.6875 0
0.5 0.6875 0
0.5 0.625 0
0.5625 0.625 0
0.5 0.6875 0
0.5625 0.6875 0
0.5625 0.625 0
0.625 0.625 0
0.5625 0.6875 0
0.625 0.6875 0
0.625 0.625 0
0.6875 0.625 0
0.625 0.6875 0
0.6875 0.6875 0
0.6875 0.625 0
0.75 0.625 0
0.6875 0.6875 0
0.75 0.6875 0
0.75 0.625 0
0.8125 0.625 0
0.75 0.6875 0
0.8125 0.6875 0
0.8125 0.625 0
0.875 0.625 0
0.8125 0.6875 0
0.875 0.6875 0
0.875 0.625 0
0.9375 0.625 0
0.875 0.6875 0
0.9375 0.6875 0
0.9375 0.625 0
1 0.625 0
0.9375 0.6875 0
1 0.6875 0
0 0.6875 0
0.0625 0.6875 0
0 0.75 0
0.0625 0.75 0
0.0625 0.6875 0
0.125 0.6875 0
0.0625 0.75 0
0.125 0.75 0
0.125 0.6875 0
0.1875 0.6875 0
0.125 0.75 0
0.1875 0.75 0
0.1875 0.6875 0
0.25 0.6875 0
0.1875 0.75 0
0.25 0.75 0
0.25 0.6875 0
0.3125 0.6875 0
0.25 0.75 0
0.3125 0.75 0
0.3125 0.6875 0
0.375 0.6875 0
0.3125 0.75 0
0.375 0.75 0
0.375 0.6875 0
0.4375 0.6875 0
0.375 0.75 0
0.4375 0.75 0
0.4375 0.6875 0
0.5 0.6875 0
0.4375 0.75 0
0.5 0.75 0
0.5 0.6875 0
0.5625 0.6875 0
0.5 0.75 0
0.5625 0.75 0
0.5625 0.6875 0
0.625 0.6875 0
0.5625 0.75 0
0.625 0.75 0
0.625 0.6875 0
0.6875 0.6875 0
0.625 0.75 0
0.6875 0.75 0
0.6875 0.6875 0
0.75 0.6875 0
0.6875 0.75 0
0.75 0.75 0
0.75 0.6875 0
0.8125 0.6875 0
0.75 0.75 0
0.8125 0.75 0
0.8125 0.6875 0
0.875 0.6875 0
0.8125 0.75 0
0.875 0.75 0
0.875 0.6875 0
0.9375 0.6875 0
0.875 0.75 0
0.9375 0.75 0
0.9375 0.6875 0
1 0.6875 0
0.9375 0.75 0
1 0.75 0
0 0.75 0
0.0625 0.75 0
0 0.8125 0
0.0625 0.8125 0
0.0625 0.75 0
0.125 0.75 0
0.0625 0.8125 0
0.125 0.8125 0
0.125 0.75 0
0.1875 0.75 0
0.125 0.8125 0
0.1875 0.8125 0
0.1875 0.75 0
0.25 0.75 0
0.1875 0.8125 0
0.25 0.8125 0
0.25 0.75 0
0.3125 0.75 0
0.25 0.8125 0
0.3125 0.8125 0
0.3125 0.75 0
0.375 0.75 0
0.3125 0.8125 0
0.375 0.8125 0
0.375 0.75 0
0.4375 0.75 0
0.375 0.8125 0
0.4375 0.8125 0
0.4375 0.75 0
0.5 0.75 0
0.4375 0.8125 0
0.5 0.8125 0
0.5 0.75 0
0.5625 0.75 0
0.5 0.8125 0
0.5625 0.8125 0
0.5625 0.75 0
0.625 0.75 0
0.5625 0.8125 0
0.625 0.8125 0
0.625 0.75 0
0.6875 0.75 0
0.625 0.8125 0
0.6875 0.8125 0
0.6875 0.75 0
0.75 0.75 0
0.6875 0.8125 0
0.75 0.8125 0
0.75 0.75 0
0.8125 0.75 0
0.75 0.8125 0
0.8125 0.8125 0
0.8125 0.75 0
0.875 0.75 0
0.8125 0.8125 0
0.875 0.8125 0
0.875 0.75 0
0.9375 0.75 0
0.875 0.8125 0
0.9375 0.8125 0
0.9375 0.75 0
1 0.75 0
0.9375 0.8125 0
1 0.8125 0
0 0.8125 0
0.0625 0.8125 0
0 0.875 0
0.0625 0.875 0
0.0625 0.8125 0
0.125 0.8125 0
0.0625 0.875 0
0.125 0.875 0
0.125 0.8125 0
0.1875 0.8125 0
0.125 0.875 0
0.1875 0.875 0
0.1875 0.8125 0
0.25 0.8125 0
0.1875 0.875 0
0.25 0.875 0
0.25 0.8125 0
0.3125 0.8125 0
0.25 0.875 0
0.3125 0.875 0
0.3125 0.8125 0
0.375 0.8125 0
0.3125 0.875 0
0.375 0.875 0
0.375 0.8125 0
0.4375 0.8125 0
0.375 0.875 0
0.4375 0.875 0
0.4375 0.8125 0
0.5 0.8125 0
0.4375 0.875 0
0.5 0.875 0
0.5 0.8125 0
0.5625 0.8125 0
0.5 0.875 0
0.5625 0.875 0
0.5625 0.8125 0
0.625 0.8125 0
0.5625 0.875 0
0.625 0.875 0
0.625 0.8125 0
0.6875 0.8125 0
0.625 0.875 0
0.6875 0.875 0
0.6875 0.8125 0
0.75 0.8125 0
0.6875 0.875 0
0.75 0.875 0
0.75 0.8125 0
0.8125 0.8125 0
0.75 0.875 0
0.8125 0.875 0
0.8125 0.8125 0
0.875 0.8125 0
0.8125 0.875 0
0.875 0.875 0
0.875 0.8125 0
0.9375 0.8125 0
0.875 0.875 0
0.9375 0.875 0
0.9375 0.8125 0
1 0.8125 0
0.9375 0.875 0
1 0.875 0
0 0.875 0
0.0625 0.875 0
0 0.9375 0
0.0625 0.9375 0
0.0625 0.875 0
0.125 0.875 0
0.0625 0.9375 0
0.125 0.9375 0
0.125 0.875 0
0.1875 0.875 0
0.125 0.9375 0
0.1875 0.9375 0
0.1875 0.875 0
0.25 0.875 0
0.1875 0.9375 0
0.25 0.9375 0
0.25 0.875 0
0.3125 0.875 0
0.25 0.9375 0
0.3125 0.9375 0
0.3125 0.875 0
0.375 0.875 0
0.3125 0.9375 0
0.375 0.9375 0
0.375 0.875 0
0.4375 0.875 0
0.375 0.9375 0
0.4375 0.9375 0
0.4375 0.875 0
0.5 0.875 0
0.4375 0.9375 0
0.5 0.9375 0
0.5 0.875 0
0.5625 0.875 0
0.5 0.9375 0
0.5625 0.9375 0
0.5625 0.875 0
0.625 0.875 0
0.5625 0.9375 0
0.625 0.9375 0
0.625 0.875 0
0.6875 0.875 0
0.625 0.9375 0
0.6875 0.9375 0
0.6875 0.875 0
0.75 0.875 0
0.6875 0.9375 0
0.75 0.9375 0
0.75 0.875 0
0.8125 0.875 0
0.75 0.9375 0
0.8125 0.9375 0
0.8125 0.875 0
0.875 0.875 0
0.8125 0.9375 0
0.875 0.9375 0
0.875 0.875 0
0.9375 0.875 0
0.875 0.9375 0
0.9375 0.9375 0
0.9375 0.875 0
1 0.875 0
0.9375 0.9375 0
1 0.9375 0
0 0.9375 0
0.0625 0.9375 0
0 1 0
0.0625 1 0
0.0625 0.9375 0
0.125 0.9375 0
0.0625 1 0
0.125 1 0
0.125 0.9375 0
0.1875 0.9375 0
0.125 1 0
0.1875 1 0
0.1875 0.9375 0
0.25 0.9375 0
0.1875 1 0
0.25 1 0
0.25 0.9375 0
0.3125 0.9375 0
0.25 1 0
0.3125 1 0
0.3125 0.9375 0
0.375 0.9375 0
0.3125 1 0
0.375 1 0
0.375 0.9375 0
0.4375 0.9375 0
0.375 1 0
0.4375 1 0
0.4375 0.9375 0
0.5 0.9375 0
0.4375 1 0
0.5 1 0
0.5 0.9375 0
0.5625 0.9375 0
0.5 1 0
0.5625 1 0
0.5625 0.9375 0
0.625 0.9375 0
0.5625 1 0
0.625 1 0
0.625 0.9375 0
0.6875 0.9375 0
0.625 1 0
0.6875 1 0
0.6875 0.9375 0
0.75 0.9375 0
0.6875 1 0
0.75 1 0
0.75 0.9375 0
0.8125 0.9375 0
0.75 1 0
0.8125 1 0
0.8125 0.9375 0
0.875 0.9375 0
0.8125 1 0
0.875 1 0
0.875 0.9375 0
0.9375 0.9375 0
0.875 1 0
0.9375 1 0
0.9375 0.9375 0
1 0.9375 0
0.9375 1 0
1 1 0
0.25 0 0
0.28125 0 0
0.25 0.03125 0
0.28125 0.03125 0
0.28125 0 0
0.3125 0 0
0.28125 0.03125 0
0.3125 0.03125 0
0.25 0.03125 0
0.28125 0.03125 0
0.25 0.0625 0
0.28125 0.0625 0
0.28125 0.03125 0
0.3125 0.03125 0
0.28125 0.0625 0
0.3125 0.0625 0
0.3125 0 0
0.34375 0 0
0.3125 0.03125 0
0.34375 0.03125 0
0.65625 0 0
0.6875 0 0
0.65625 0.03125 0
0.6875 0.03125 0
0.6875 0 0
0.71875 0 0
0.6875 0.03125 0
0.71875 0.03125 0
0.71875 0 0
0.75 0 0
0.71875 0.03125 0
0.75 0.03125 0
0.6875 0.03125 0
0.71875 0.03125 0
0.6875 0.0625 0
0.71875 0.0625 0
0.71875 0.03125 0
0.75 0.03125 0
0.71875 0.0625 0
0.75 0.0625 0
0.75 0 0
[...]
POINT_DATA 10900
SCALARS solution double 1
LOOKUP_TABLE default
0 0 0 -5.35793e-13 0 0 -5.35793e-13 -1.16066e-12 0 0 -5.57686e-13 0 0 -5.35793e-13 0 -9.87421e-13 -5.57686e-13 0 -1.02629e-12 0 0 -9.87421e-13 0 -1.29876e-12 -1.02629e-12 0 -1.34661e-12 0 0 -1.29876e-12 0 -1.45452e-12 -1.34661e-12 0 -1.50338e-12 0 0 -1.45452e-12 0 -1.47398e-12 -1.45452e-12 -3.04765e-12 -1.47398e-12 -3.04631e-12 -3.1512e-12 -1.50338e-12 -3.13726e-12 -1.51809e-12 -1.50338e-12 0 -1.51809e-12 0 0 -1.47398e-12 0 -1.39526e-12 -1.47398e-12 -3.04631e-12 -1.39526e-12 -2.8479e-12 -3.04631e-12 -4.81425e-12 -2.8479e-12 -4.40491e-12 -4.95662e-12 -3.13726e-12 -4.51475e-12 -2.92129e-12 -3.13726e-12 -1.51809e-12 -2.92129e-12 -1.43178e-12 -1.51809e-12 0 -1.43178e-12 0 0 -1.39526e-12 0 -1.25765e-12 -1.39526e-12 -2.8479e-12 -1.25765e-12 -2.5407e-12 -2.8479e-12 -4.40491e-12 -2.5407e-12 -3.86295e-12 -4.40491e-12 -6.08582e-12 -3.86295e-12 -5.21149e-12 -4.51475e-12 -2.92129e-12 -3.94322e-12 -2.59653e-12 -2.92129e-12 -1.43178e-12 -2.59653e-12 -1.28605e-12 -1.43178e-12 0 -1.28605e-12 0 0 -1.25765e-12 0 -1.09278e-12 -1.25765e-12 -2.5407e-12 -1.09278e-12 -2.19002e-12 -2.5407e-12 -3.86295e-12 -2.19002e-12 -3.28676e-12 -3.86295e-12 -5.21149e-12 -3.28676e-12 -4.35882e-12 -5.21149e-12 -6.52855e-12 -4.35882e-12 -5.35386e-12 -6.52855e-12 -7.69278e-12 -5.35386e-12 -6.18819e-12 -7.78359e-12 -6.63302e-12 -6.245e-12 -5.42216e-12 -6.63302e-12 -5.31028e-12 -5.42216e-12 -4.42629e-12 -5.31028e-12 -3.94322e-12 -4.42629e-12 -3.34392e-12 -3.94322e-12 -2.59653e-12 -3.34392e-12 -2.23085e-12 -2.59653e-12 -1.28605e-12 -2.23085e-12 -1.11392e-12 -1.28605e-12 0 -1.11392e-12 0 0 -1.09278e-12 0 -9.2193e-13 -1.09278e-12 -2.19002e-12 -9.2193e-13 -1.83662e-12 -2.19002e-12 -3.28676e-12 -1.83662e-12 -2.73039e-12 -3.28676e-12 -4.35882e-12 -2.73039e-12 -3.57737e-12 -4.35882e-12 -5.35386e-12 -3.57737e-12 -4.33582e-12 -5.35386e-12 -6.18819e-12 -4.33582e-12 -4.9494e-12 -6.18819e-12 -6.75855e-12 -4.9494e-12 -5.35623e-12 -6.75855e-12 -6.97297e-12 -5.35623e-12 -5.50573e-12 -6.97297e-12 -6.79114e-12 -5.50573e-12 -5.37665e-12 -6.79114e-12 -6.245e-12 -5.37665e-12 -4.98572e-12 -6.245e-12 -5.42216e-12 -4.98572e-12 -4.38076e-12 -5.42216e-12 -4.42629e-12 -4.38076e-12 -3.6231e-12 -4.42629e-12 -3.34392e-12 -3.6231e-12 -2.77021e-12 -3.34392e-12 -2.23085e-12 -2.77021e-12 -1.86566e-12 -2.23085e-12 -1.11392e-12 -1.86566e-12 -9.37163e-13 -1.11392e-12 0 -9.37163e-13 0 0 -9.2193e-13 0 -7.57235e-13 -9.2193e-13 -1.83662e-12 -7.57235e-13 -1.50204e-12 -1.83662e-12 -2.73039e-12 -1.50204e-12 -2.21803e-12 -2.73039e-12 -3.57737e-12 -2.21803e-12 -2.88176e-12 -3.57737e-12 -4.33582e-12 -2.88176e-12 -3.46149e-12 -4.33582e-12 -4.9494e-12 -3.46149e-12 -3.91917e-12 -4.9494e-12 -5.35623e-12 -3.91917e-12 -4.21651e-12 -5.35623e-12 -5.50573e-12 -4.21651e-12 -4.32398e-12 -5.50573e-12 -5.37665e-12 -4.32398e-12 -4.22958e-12 -5.37665e-12 -4.98572e-12 -4.22958e-12 -3.94273e-12 -4.98572e-12 -4.38076e-12 -3.94273e-12 -3.49117e-12 -4.38076e-12 -3.6231e-12 -3.49117e-12 -2.91258e-12 -3.6231e-12 -2.77021e-12 -2.91258e-12 -2.24538e-12 -2.77021e-12 -1.86566e-12 -2.24538e-12 -1.52228e-12 -1.86566e-12 -9.37163e-13 -1.52228e-12 -7.67951e-13 -9.37163e-13 0 -7.67951e-13 0 0 -7.57235e-13 0 -6.04293e-13 -7.57235e-13 -1.50204e-12 -6.04293e-13 -1.19504e-12 -1.50204e-12 -2.21803e-12 -1.19504e-12 -1.75646e-12 -2.21803e-12 -2.88176e-12 -1.75646e-12 -2.269e-12 -2.88176e-12 -3.46149e-12 -2.269e-12 -2.70906e-12 -3.46149e-12 -3.91917e-12 -2.70906e-12 -3.05077e-12 -3.91917e-12 -4.21651e-12 -3.05077e-12 -3.26972e-12 -4.21651e-12 -4.32398e-12 -3.26972e-12 -3.3479e-12 -4.32398e-12 -4.22958e-12 -3.3479e-12 -3.27817e-12 -4.22958e-12 -3.94273e-12 -3.27817e-12 -3.06613e-12 -3.94273e-12 -3.49117e-12 -3.06613e-12 -2.72865e-12 -3.49117e-12 -2.91258e-12 -2.72865e-12 -2.28961e-12 -2.91258e-12 -2.24538e-12 -2.28961e-12 -1.77499e-12 -2.24538e-12 -1.52228e-12 -1.77499e-12 -1.20889e-12 -1.52228e-12 -7.67951e-13 -1.20889e-12 -6.11676e-13 -7.67951e-13 0 -6.11676e-13 0 0 -6.04293e-13 0 -4.64508e-13 -6.04293e-13 -1.19504e-12 -4.64508e-13 -9.16692e-13 -1.19504e-12 -1.75646e-12 -9.16692e-13 -1.34307e-12 -1.75646e-12 -2.269e-12 -1.34307e-12 -1.72826e-12 -2.269e-12 -2.70906e-12 -1.72826e-12 -2.05517e-12 -2.70906e-12 -3.05077e-12 -2.05517e-12 -2.30621e-12 -3.05077e-12 -3.26972e-12 -2.30621e-12 -2.46557e-12 -3.26972e-12 -3.3479e-12 -2.46557e-12 -2.52197e-12 -3.3479e-12 -3.27817e-12 -2.52197e-12 -2.47102e-12 -3.27817e-12 -3.06613e-12 -2.47102e-12 -2.31618e-12 -3.06613e-12 -2.72865e-12 -2.31618e-12 -2.06798e-12 -2.72865e-12 -2.28961e-12 -2.06798e-12 -1.74185e-12 -2.28961e-12 -1.77499e-12 -1.74185e-12 -1.35538e-12 -1.77499e-12 -1.20889e-12 -1.35538e-12 -9.25969e-13 -1.20889e-12 -6.11676e-13 -9.25969e-13 -4.69475e-13 -6.11676e-13 0 -4.69475e-13 0 0 -4.64508e-13 0 -3.36838e-13 -4.64508e-13 -9.16692e-13 -3.36838e-13 -6.63819e-13 -9.16692e-13 -1.34307e-12 -6.63819e-13 -9.70523e-13 -1.34307e-12 -1.72826e-12 -9.70523e-13 -1.24569e-12 -1.72826e-12 -2.05517e-12 -1.24569e-12 -1.47744e-12 -2.05517e-12 -2.30621e-12 -1.47744e-12 -1.65411e-12 -2.30621e-12 -2.46557e-12 -1.65411e-12 -1.76556e-12 -2.46557e-12 -2.52197e-12 -1.76556e-12 -1.80476e-12 -2.52197e-12 -2.47102e-12 -1.80476e-12 -1.76899e-12 -2.47102e-12 -2.31618e-12 -1.76899e-12 -1.66041e-12 -2.31618e-12 -2.06798e-12 -1.66041e-12 -1.48558e-12 -2.06798e-12 -1.74185e-12 -1.48558e-12 -1.25438e-12 -1.74185e-12 -1.35538e-12 -1.25438e-12 -9.78439e-13 -1.35538e-12 -9.25969e-13 -9.78439e-13 -6.69807e-13 -9.25969e-13 -4.69475e-13 -6.69807e-13 -3.40054e-13 -4.69475e-13 0 -3.40054e-13 0 0 -3.36838e-13 0 -2.18925e-13 -3.36838e-13 -6.63819e-13 -2.18925e-13 -4.31065e-13 -6.63819e-13 -9.70523e-13 -4.31065e-13 -6.29396e-13 -9.70523e-13 -1.24569e-12 -6.29396e-13 -8.0656e-13 -1.24569e-12 -1.47744e-12 -8.0656e-13 -9.55056e-13 -1.47744e-12 -1.65411e-12 -9.55056e-13 -1.06773e-12 -1.65411e-12 -1.76556e-12 -1.06773e-12 -1.13854e-12 -1.76556e-12 -1.80476e-12 -1.13854e-12 -1.16334e-12 -1.80476e-12 -1.76899e-12 -1.16334e-12 -1.14056e-12 -1.76899e-12 -1.66041e-12 -1.14056e-12 -1.07143e-12 -1.66041e-12 -1.48558e-12 -1.07143e-12 -9.59847e-13 -1.48558e-12 -1.25438e-12 -9.59847e-13 -8.11693e-13 -1.25438e-12 -9.78439e-13 -8.11693e-13 -6.3409e-13 -9.78439e-13 -6.69807e-13 -6.3409e-13 -4.34627e-13 -6.69807e-13 -3.40054e-13 -4.34627e-13 -2.20841e-13 -3.40054e-13 0 -2.20841e-13 0 0 -2.18925e-13 0 -1.0775e-13 -2.18925e-13 -4.31065e-13 -1.0775e-13 -2.1206e-13 -4.31065e-13 -6.29396e-13 -2.1206e-13 -3.09402e-13 -6.29396e-13 -8.0656e-13 -3.09402e-13 -3.96148e-13 -8.0656e-13 -9.55056e-13 -3.96148e-13 -4.68667e-13 -9.55056e-13 -1.06773e-12 -4.68667e-13 -5.23555e-13 -1.06773e-12 -1.13854e-12 -5.23555e-13 -5.57973e-13 -1.13854e-12 -1.16334e-12 -5.57973e-13 -5.69998e-13 -1.16334e-12 -1.14056e-12 -5.69998e-13 -5.58902e-13 -1.14056e-12 -1.07143e-12 -5.58902e-13 -5.25264e-13 -1.07143e-12 -9.59847e-13 -5.25264e-13 -4.70884e-13 -9.59847e-13 -8.11693e-13 -4.70884e-13 -3.98529e-13 -8.11693e-13 -6.3409e-13 -3.98529e-13 -3.11583e-13 -6.3409e-13 -4.34627e-13 -3.11583e-13 -2.13717e-13 -4.34627e-13 -2.20841e-13 -2.13717e-13 -1.08643e-13 -2.20841e-13 0 -1.08643e-13 0 0 -1.0775e-13 0 0 -1.0775e-13 -2.1206e-13 0 0 -2.1206e-13 -3.09402e-13 0 0 -3.09402e-13 -3.96148e-13 0 0 -3.96148e-13 -4.68667e-13 0 0 -4.68667e-13 -5.23555e-13 0 0 -5.23555e-13 -5.57973e-13 0 0 -5.57973e-13 -5.69998e-13 0 0 -5.69998e-13 -5.58902e-13 0 0 -5.58902e-13 -5.25264e-13 0 0 -5.25264e-13 -4.70884e-13 0 0 -4.70884e-13 -3.98529e-13 0 0 -3.98529e-13 -3.11583e-13 0 0 -3.11583e-13 -2.13717e-13 0 0 -2.13717e-13 -1.08643e-13 0 0 -1.08643e-13 0 0 0 0 0 -1.68222e-12 -2.15744e-12 0 0 -2.15744e-12 -2.78587e-12 -1.68222e-12 -2.15744e-12 -3.25812e-12 -4.16456e-12 -2.15744e-12 -2.78587e-12 -4.16456e-12 -5.35985e-12 0 0 -2.78587e-12 -3.63001e-12 0 0 -3.82294e-12 -2.93233e-12 0 0 -2.93233e-12 -2.2675e-12 0 0 -2.2675e-12 -1.76488e-12 -2.93233e-12 -2.2675e-12 -5.64212e-12 -4.37555e-12 -2.2675e-12 -1.76488e-12 -4.37555e-12 -3.41667e-12 0 0 -1.76488e-12 -1.3776e-12 0 0 -1.3776e-12 -1.0722e-12 -1.76488e-12 -1.3776e-12 -3.41667e-12 -2.67495e-12 -1.3776e-12 -1.0722e-12 -2.67495e-12 -2.08729e-12 -1.99723e-12 -2.55557e-12 -2.86804e-12 -3.65427e-12 -2.86804e-12 -3.65427e-12 -3.60122e-12 -4.56163e-12 -3.65427e-12 -4.63503e-12 -4.56163e-12 -5.74468e-12 -3.25812e-12 -4.16456e-12 -4.63503e-12 -5.88899e-12 -4.63503e-12 -5.88899e-12 -5.74468e-12 -7.23544e-12 -4.37555e-12 -3.41667e-12 -6.18234e-12 -4.85587e-12 -6.18234e-12 -4.85587e-12 -7.58435e-12 -6.00951e-12 -3.41667e-12 -2.67495e-12 -4.85587e-12 -3.82129e-12 -2.67495e-12 -2.08729e-12 -3.82129e-12 -2.99461e-12 -4.85587e-12 -3.82129e-12 -6.00951e-12 -4.7638e-12 -3.82129e-12 -2.99461e-12 -4.7638e-12 -3.75549e-12 -3.60122e-12 -4.56163e-12 -4.1749e-12 -5.2504e-12 -4.56163e-12 -5.74468e-12 -5.2504e-12 -6.55278e-12 -4.1749e-12 -5.2504e-12 -4.5824e-12 -5.71568e-12 -5.2504e-12 -6.55278e-12 -5.71568e-12 -7.0599e-12 -5.74468e-12 -7.23544e-12 -6.55278e-12 -8.16119e-12 -6.55278e-12 -8.16119e-12 -7.0599e-12 -8.67867e-12 -8.16119e-12 -1.01848e-11 -8.67867e-12 -1.06531e-11 -7.58435e-12 -6.00951e-12 -8.53466e-12 -6.84078e-12 -8.53466e-12 -6.84078e-12 -9.04815e-12 -7.35127e-12 -6.00951e-12 -4.7638e-12 -6.84078e-12 -5.47321e-12 -4.7638e-12 -3.75549e-12 -5.47321e-12 -4.34679e-12 -6.84078e-12 -5.47321e-12 -7.35127e-12 -5.94513e-12 -5.47321e-12 -4.34679e-12 -5.94513e-12 -4.76193e-12 -7.0599e-12 -8.67867e-12 -7.29541e-12 -8.84419e-12 -8.67867e-12 -1.06531e-11 -8.84419e-12 -1.06673e-11 -7.29541e-12 -8.84419e-12 -7.30615e-12 -8.73541e-12 -8.84419e-12 -1.06673e-11 -8.73541e-12 -1.03575e-11 -1.06531e-11 -1.30852e-11 -1.06673e-11 -1.28119e-11 -1.06673e-11 -1.28119e-11 -1.03575e-11 -1.218e-11 -1.33212e-11 -1.10881e-11 -1.25941e-11 -1.0718e-11 -1.11223e-11 -9.04815e-12 -1.10881e-11 -9.18809e-12 -9.04815e-12 -7.35127e-12 -9.18809e-12 -7.57423e-12 -1.10881e-11 -9.18809e-12 -1.0718e-11 -9.04162e-12 -9.18809e-12 -7.57423e-12 -9.04162e-12 -7.56186e-12 -7.30615e-12 -8.73541e-12 -7.14478e-12 -8.43176e-12 -8.73541e-12 -1.03575e-11 -8.43176e-12 -9.84222e-12 -7.14478e-12 -8.43176e-12 -6.86101e-12 -8.00193e-12 -8.43176e-12 -9.84222e-12 -8.00193e-12 -9.21318e-12 -1.03575e-11 -1.218e-11 -9.84222e-12 -1.13615e-11 -9.84222e-12 -1.13615e-11 -9.21318e-12 -1.04709e-11 -1.13615e-11 -1.29457e-11 -1.04709e-11 -1.17284e-11 -1.29457e-11 -1.45035e-11 -1.17284e-11 -1.29097e-11 -1.45035e-11 -1.58835e-11 -1.29097e-11 -1.39085e-11 -1.61483e-11 -1.48297e-11 -1.40901e-11 -1.31437e-11 -1.48297e-11 -1.32881e-11 -1.31437e-11 -1.19861e-11 -1.25941e-11 -1.0718e-11 -1.16905e-11 -1.01422e-11 -1.32881e-11 -1.16905e-11 -1.19861e-11 -1.07298e-11 -1.16905e-11 -1.01422e-11 -1.07298e-11 -9.45851e-12 -1.0718e-11 -9.04162e-12 -1.01422e-11 -8.69601e-12 -9.04162e-12 -7.56186e-12 -8.69601e-12 -7.37191e-12 -1.01422e-11 -8.69601e-12 -9.45851e-12 -8.22518e-12 -8.69601e-12 -7.37191e-12 -8.22518e-12 -7.05811e-12 -9.21318e-12 -1.04709e-11 -8.53392e-12 -9.57523e-12 -1.04709e-11 -1.17284e-11 -9.57523e-12 -1.05817e-11 -8.53392e-12 -9.57523e-12 -7.84541e-12 -8.71137e-12 -9.57523e-12 -1.05817e-11 -8.71137e-12 -9.52597e-12 -1.17284e-11 -1.29097e-11 -1.05817e-11 -1.14948e-11 -1.29097e-11 -1.39085e-11 -1.14948e-11 -1.22415e-11 -1.05817e-11 -1.14948e-11 -9.52597e-12 -1.02453e-11 -1.14948e-11 -1.22415e-11 -1.02453e-11 -1.08194e-11 -1.39085e-11 -1.46021e-11 -1.22415e-11 -1.27458e-11 -1.46021e-11 -1.48832e-11 -1.27458e-11 -1.29462e-11 -1.22415e-11 -1.27458e-11 -1.08194e-11 -1.11994e-11 -1.27458e-11 -1.29462e-11 -1.11994e-11 -1.13482e-11 -1.48832e-11 -1.47022e-11 -1.29462e-11 -1.28155e-11 -1.47022e-11 -1.40901e-11 -1.28155e-11 -1.23706e-11 -1.29462e-11 -1.28155e-11 -1.13482e-11 -1.12497e-11 -1.28155e-11 -1.23706e-11 -1.12497e-11 -1.09139e-11 -1.40901e-11 -1.31437e-11 -1.23706e-11 -1.16663e-11 -1.31437e-11 -1.19861e-11 -1.16663e-11 -1.07773e-11 -1.23706e-11 -1.16663e-11 -1.09139e-11 -1.03736e-11 -1.16663e-11 -1.07773e-11 -1.03736e-11 -9.67595e-12 -1.19861e-11 -1.07298e-11 -1.07773e-11 -9.77859e-12 -1.07298e-11 -9.45851e-12 -9.77859e-12 -8.73277e-12 -1.07773e-11 -9.77859e-12 -9.67595e-12 -8.87145e-12 -9.77859e-12 -8.73277e-12 -8.87145e-12 -8.00591e-12 -1.13482e-11 -1.12497e-11 -1.0002e-11 -9.92531e-12 -1.12497e-11 -1.09139e-11 -9.92531e-12 -9.66401e-12 -1.0002e-11 -9.92531e-12 -8.84938e-12 -8.788e-12 -9.92531e-12 -9.66401e-12 -8.788e-12 -8.57965e-12 0 0 -1.02544e-12 -1.31543e-12 0 0 -1.31543e-12 -1.68222e-12 -1.02544e-12 -1.31543e-12 -1.99723e-12 -2.55557e-12 -1.31543e-12 -1.68222e-12 -2.55557e-12 -3.25812e-12 0 0 -1.0722e-12 -8.25003e-13 0 0 -8.25003e-13 -6.19112e-13 -1.0722e-12 -8.25003e-13 -2.08729e-12 -1.60944e-12 -8.25003e-13 -6.19112e-13 -1.60944e-12 -1.20978e-12 -1.16066e-12 -1.54209e-12 -1.67656e-12 -2.22207e-12 -1.67656e-12 -2.22207e-12 -2.12237e-12 -2.80294e-12 -2.22207e-12 -2.86804e-12 -2.80294e-12 -3.60122e-12 -2.08729e-12 -1.60944e-12 -2.99461e-12 -2.31706e-12 -1.60944e-12 -1.20978e-12 -2.31706e-12 -1.74639e-12 -2.99461e-12 -2.31706e-12 -3.75549e-12 -2.91957e-12 -2.31706e-12 -1.74639e-12 -2.91957e-12 -2.2086e-12 -3.75549e-12 -2.91957e-12 -4.34679e-12 -3.39905e-12 -2.91957e-12 -2.2086e-12 -3.39905e-12 -2.58291e-12 -4.34679e-12 -3.39905e-12 -4.76193e-12 -3.74865e-12 -3.39905e-12 -2.58291e-12 -3.74865e-12 -2.86327e-12 -4.5824e-12 -5.71568e-12 -4.83059e-12 -5.97226e-12 -5.71568e-12 -7.0599e-12 -5.97226e-12 -7.29541e-12 -4.83059e-12 -5.97226e-12 -4.93642e-12 -6.04841e-12 -5.97226e-12 -7.29541e-12 -6.04841e-12 -7.30615e-12 -7.35127e-12 -5.94513e-12 -7.57423e-12 -6.19653e-12 -5.94513e-12 -4.76193e-12 -6.19653e-12 -5.00899e-12 -7.57423e-12 -6.19653e-12 -7.56186e-12 -6.25884e-12 -6.19653e-12 -5.00899e-12 -6.25884e-12 -5.10683e-12 -9.45851e-12 -8.22518e-12 -8.73277e-12 -7.68529e-12 -8.22518e-12 -7.05811e-12 -7.68529e-12 -6.66515e-12 -8.73277e-12 -7.68529e-12 -8.00591e-12 -7.11585e-12 -7.68529e-12 -6.66515e-12 -7.11585e-12 -6.22745e-12 -1.08194e-11 -1.11994e-11 -9.59327e-12 -9.88805e-12 -1.11994e-11 -1.13482e-11 -9.88805e-12 -1.0002e-11 -9.59327e-12 -9.88805e-12 -8.52574e-12 -8.75981e-12 -9.88805e-12 -1.0002e-11 -8.75981e-12 -8.84938e-12 -1.09139e-11 -1.03736e-11 -9.66401e-12 -9.23886e-12 -1.03736e-11 -9.67595e-12 -9.23886e-12 -8.6805e-12 -9.66401e-12 -9.23886e-12 -8.57965e-12 -8.23796e-12 -9.23886e-12 -8.6805e-12 -8.23796e-12 -7.78359e-12 0 0 -5.93592e-13 -7.90114e-13 0 0 -7.90114e-13 -1.02544e-12 -5.93592e-13 -7.90114e-13 -1.16066e-12 -1.54209e-12 -7.90114e-13 -1.02544e-12 -1.54209e-12 -1.99723e-12 -2.12237e-12 -2.80294e-12 -2.48525e-12 -3.2679e-12 -2.80294e-12 -3.60122e-12 -3.2679e-12 -4.1749e-12 -2.48525e-12 -3.2679e-12 -2.75922e-12 -3.61013e-12 -3.2679e-12 -4.1749e-12 -3.61013e-12 -4.5824e-12 -2.75922e-12 -3.61013e-12 -2.94481e-12 -3.83225e-12 -3.61013e-12 -4.5824e-12 -3.83225e-12 -4.83059e-12 -2.94481e-12 -3.83225e-12 -3.04765e-12 -3.94425e-12 -3.83225e-12 -4.83059e-12 -3.94425e-12 -4.93642e-12 -4.76193e-12 -3.74865e-12 -5.00899e-12 -3.97167e-12 -3.74865e-12 -2.86327e-12 -3.97167e-12 -3.05058e-12 -5.00899e-12 -3.97167e-12 -5.10683e-12 -4.07929e-12 -3.97167e-12 -3.05058e-12 -4.07929e-12 -3.1512e-12 -4.93642e-12 -6.04841e-12 -4.92274e-12 -5.97883e-12 -6.04841e-12 -7.30615e-12 -5.97883e-12 -7.14478e-12 -4.92274e-12 -5.97883e-12 -4.81425e-12 -5.79881e-12 -5.97883e-12 -7.14478e-12 -5.79881e-12 -6.86101e-12 -7.56186e-12 -6.25884e-12 -7.37191e-12 -6.17009e-12 -6.25884e-12 -5.10683e-12 -6.17009e-12 -5.08046e-12 -7.37191e-12 -6.17009e-12 -7.05811e-12 -5.96842e-12 -6.17009e-12 -5.08046e-12 -5.96842e-12 -4.95662e-12 -6.86101e-12 -8.00193e-12 -6.49698e-12 -7.49924e-12 -8.00193e-12 -9.21318e-12 -7.49924e-12 -8.53392e-12 -6.49698e-12 -7.49924e-12 -6.08582e-12 -6.96212e-12 -7.49924e-12 -8.53392e-12 -6.96212e-12 -7.84541e-12 -6.08582e-12 -6.96212e-12 -5.65162e-12 -6.41678e-12 -5.65162e-12 -6.41678e-12 -5.21149e-12 -5.88032e-12 -6.41678e-12 -7.17232e-12 -5.88032e-12 -6.52855e-12 -9.52597e-12 -1.02453e-11 -8.56433e-12 -9.14132e-12 -1.02453e-11 -1.08194e-11 -9.14132e-12 -9.59327e-12 -8.56433e-12 -9.14132e-12 -7.69278e-12 -8.16277e-12 -9.14132e-12 -9.59327e-12 -8.16277e-12 -8.52574e-12 -9.67595e-12 -8.87145e-12 -8.6805e-12 -8.02373e-12 -8.87145e-12 -8.00591e-12 -8.02373e-12 -7.30176e-12 -8.6805e-12 -8.02373e-12 -7.78359e-12 -7.24038e-12 -8.02373e-12 -7.30176e-12 -7.24038e-12 -6.63302e-12 -8.52574e-12 -8.75981e-12 -7.58817e-12 -7.77766e-12 -8.75981e-12 -8.84938e-12 -7.77766e-12 -7.84948e-12 -7.58817e-12 -7.77766e-12 -6.75855e-12 -6.91422e-12 -7.77766e-12 -7.84948e-12 -6.91422e-12 -6.97297e-12 -8.84938e-12 -8.788e-12 -7.84948e-12 -7.79933e-12 -8.788e-12 -8.57965e-12 -7.79933e-12 -7.62984e-12 -7.84948e-12 -7.79933e-12 -6.97297e-12 -6.93109e-12 -7.79933e-12 -7.62984e-12 -6.93109e-12 -6.79114e-12 0 0 -6.19112e-13 -4.42158e-13 0 0 -4.42158e-13 -2.84761e-13 -6.19112e-13 -4.42158e-13 -1.20978e-12 -8.65062e-13 -4.42158e-13 -2.84761e-13 -8.65062e-13 -5.57686e-13 -5.35793e-13 -8.30605e-13 -7.76313e-13 -1.2022e-12 -8.30605e-13 -1.16066e-12 -1.2022e-12 -1.67656e-12 -7.76313e-13 -1.2022e-12 -9.87421e-13 -1.52592e-12 -1.2022e-12 -1.67656e-12 -1.52592e-12 -2.12237e-12 -1.20978e-12 -8.65062e-13 -1.74639e-12 -1.2513e-12 -8.65062e-13 -5.57686e-13 -1.2513e-12 -8.07681e-13 -1.74639e-12 -1.2513e-12 -2.2086e-12 -1.58678e-12 -1.2513e-12 -8.07681e-13 -1.58678e-12 -1.02629e-12 -9.87421e-13 -1.52592e-12 -1.16244e-12 -1.79262e-12 -1.52592e-12 -2.12237e-12 -1.79262e-12 -2.48525e-12 -1.16244e-12 -1.79262e-12 -1.29876e-12 -1.99757e-12 -1.79262e-12 -2.48525e-12 -1.99757e-12 -2.75922e-12 -2.2086e-12 -1.58678e-12 -2.58291e-12 -1.86192e-12 -1.58678e-12 -1.02629e-12 -1.86192e-12 -1.20686e-12 -2.58291e-12 -1.86192e-12 -2.86327e-12 -2.07188e-12 -1.86192e-12 -1.20686e-12 -2.07188e-12 -1.34661e-12 -1.29876e-12 -1.99757e-12 -1.39525e-12 -2.14044e-12 -1.99757e-12 -2.75922e-12 -2.14044e-12 -2.94481e-12 -1.39525e-12 -2.14044e-12 -1.45452e-12 -2.2245e-12 -2.14044e-12 -2.94481e-12 -2.2245e-12 -3.04765e-12 -2.86327e-12 -2.07188e-12 -3.05058e-12 -2.21654e-12 -2.07188e-12 -1.34661e-12 -2.21654e-12 -1.44448e-12 -3.05058e-12 -2.21654e-12 -3.1512e-12 -2.29959e-12 -2.21654e-12 -1.44448e-12 -2.29959e-12 -1.50338e-12 -3.04765e-12 -3.94425e-12 -3.0776e-12 -3.96117e-12 -3.94425e-12 -4.93642e-12 -3.96117e-12 -4.92274e-12 -3.0776e-12 -3.96117e-12 -3.04631e-12 -3.9001e-12 -3.96117e-12 -4.92274e-12 -3.9001e-12 -4.81425e-12 -5.10683e-12 -4.07929e-12 -5.08046e-12 -4.08795e-12 -4.07929e-12 -3.1512e-12 -4.08795e-12 -3.17589e-12 -5.08046e-12 -4.08795e-12 -4.95662e-12 -4.01615e-12 -4.08795e-12 -3.17589e-12 -4.01615e-12 -3.13726e-12 -4.81425e-12 -5.79881e-12 -4.63467e-12 -5.54055e-12 -5.79881e-12 -6.86101e-12 -5.54055e-12 -6.49698e-12 -4.63467e-12 -5.54055e-12 -4.40491e-12 -5.23091e-12 -5.54055e-12 -6.49698e-12 -5.23091e-12 -6.08582e-12 -7.05811e-12 -5.96842e-12 -6.66515e-12 -5.68816e-12 -5.96842e-12 -4.95662e-12 -5.68816e-12 -4.76061e-12 -6.66515e-12 -5.68816e-12 -6.22745e-12 -5.35745e-12 -5.68816e-12 -4.76061e-12 -5.35745e-12 -4.51475e-12 -7.84541e-12 -8.71137e-12 -7.17232e-12 -7.89721e-12 -8.71137e-12 -9.52597e-12 -7.89721e-12 -8.56433e-12 -7.17232e-12 -7.89721e-12 -6.52855e-12 -7.13992e-12 -7.89721e-12 -8.56433e-12 -7.13992e-12 -7.69278e-12 -8.00591e-12 -7.11585e-12 -7.30176e-12 -6.54313e-12 -7.11585e-12 -6.22745e-12 -6.54313e-12 -5.77008e-12 -7.30176e-12 -6.54313e-12 -6.63302e-12 -5.98377e-12 -6.54313e-12 -5.77008e-12 -5.98377e-12 -5.31028e-12 -6.22745e-12 -5.35745e-12 -5.77008e-12 -4.99829e-12 -5.35745e-12 -4.51475e-12 -4.99829e-12 -4.23777e-12 -5.77008e-12 -4.99829e-12 -5.31028e-12 -4.62719e-12 -4.99829e-12 -4.23777e-12 -4.62719e-12 -3.94322e-12 -7.69278e-12 -8.16277e-12 -6.90336e-12 -7.29167e-12 -8.16277e-12 -8.52574e-12 -7.29167e-12 -7.58817e-12 -6.90336e-12 -7.29167e-12 -6.18819e-12 -6.51276e-12 -7.29167e-12 -7.58817e-12 -6.51276e-12 -6.75855e-12 -8.57965e-12 -8.23796e-12 -7.62984e-12 -7.35029e-12 -8.23796e-12 -7.78359e-12 -7.35029e-12 -6.97493e-12 -7.62984e-12 -7.35029e-12 -6.79114e-12 -6.55887e-12 -7.35029e-12 -6.97493e-12 -6.55887e-12 -6.245e-12 0 0 -3.14792e-12 -3.57785e-12 0 0 -3.57785e-12 -4.02898e-12 -3.14792e-12 -3.57785e-12 -6.25756e-12 -7.13246e-12 -3.57785e-12 -4.0289