# vtk DataFile Version 3.0
#This file was generated by the deal.II library on 2020/5/26 at 18:42:24
ASCII
DATASET UNSTRUCTURED_GRID

POINTS 6796 double
0 0 0
0.0625 0 0
0 0.0625 0
0.0625 0.0625 0
0.9375 0 0
1 0 0
0.9375 0.0625 0
1 0.0625 0
0 0.0625 0
0.0625 0.0625 0
0 0.125 0
0.0625 0.125 0
0 0.5625 0
0.0625 0.5625 0
0 0.625 0
0.0625 0.625 0
0.9375 0.5625 0
1 0.5625 0
0.9375 0.625 0
1 0.625 0
0 0.625 0
0.0625 0.625 0
0 0.6875 0
0.0625 0.6875 0
0.0625 0.625 0
0.125 0.625 0
0.0625 0.6875 0
0.125 0.6875 0
0.125 0.625 0
0.1875 0.625 0
0.125 0.6875 0
0.1875 0.6875 0
0.1875 0.625 0
0.25 0.625 0
0.1875 0.6875 0
0.25 0.6875 0
0.25 0.625 0
0.3125 0.625 0
0.25 0.6875 0
0.3125 0.6875 0
0.75 0.625 0
0.8125 0.625 0
0.75 0.6875 0
0.8125 0.6875 0
0.8125 0.625 0
0.875 0.625 0
0.8125 0.6875 0
0.875 0.6875 0
0.875 0.625 0
0.9375 0.625 0
0.875 0.6875 0
0.9375 0.6875 0
0.9375 0.625 0
1 0.625 0
0.9375 0.6875 0
1 0.6875 0
0 0.6875 0
0.0625 0.6875 0
0 0.75 0
0.0625 0.75 0
0.0625 0.6875 0
0.125 0.6875 0
0.0625 0.75 0
0.125 0.75 0
0.125 0.6875 0
0.1875 0.6875 0
0.125 0.75 0
0.1875 0.75 0
0.1875 0.6875 0
0.25 0.6875 0
0.1875 0.75 0
0.25 0.75 0
0.25 0.6875 0
0.3125 0.6875 0
0.25 0.75 0
0.3125 0.75 0
0.3125 0.6875 0
0.375 0.6875 0
0.3125 0.75 0
0.375 0.75 0
0.375 0.6875 0
0.4375 0.6875 0
0.375 0.75 0
0.4375 0.75 0
0.4375 0.6875 0
0.5 0.6875 0
0.4375 0.75 0
0.5 0.75 0
0.5 0.6875 0
0.5625 0.6875 0
0.5 0.75 0
0.5625 0.75 0
0.5625 0.6875 0
0.625 0.6875 0
0.5625 0.75 0
0.625 0.75 0
0.625 0.6875 0
0.6875 0.6875 0
0.625 0.75 0
0.6875 0.75 0
0.6875 0.6875 0
0.75 0.6875 0
0.6875 0.75 0
0.75 0.75 0
0.75 0.6875 0
0.8125 0.6875 0
0.75 0.75 0
0.8125 0.75 0
0.8125 0.6875 0
0.875 0.6875 0
0.8125 0.75 0
0.875 0.75 0
0.875 0.6875 0
0.9375 0.6875 0
0.875 0.75 0
0.9375 0.75 0
0.9375 0.6875 0
1 0.6875 0
0.9375 0.75 0
1 0.75 0
0 0.75 0
0.0625 0.75 0
0 0.8125 0
0.0625 0.8125 0
0.0625 0.75 0
0.125 0.75 0
0.0625 0.8125 0
0.125 0.8125 0
0.125 0.75 0
0.1875 0.75 0
0.125 0.8125 0
0.1875 0.8125 0
0.1875 0.75 0
0.25 0.75 0
0.1875 0.8125 0
0.25 0.8125 0
0.25 0.75 0
0.3125 0.75 0
0.25 0.8125 0
0.3125 0.8125 0
0.3125 0.75 0
0.375 0.75 0
0.3125 0.8125 0
0.375 0.8125 0
0.375 0.75 0
0.4375 0.75 0
0.375 0.8125 0
0.4375 0.8125 0
0.4375 0.75 0
0.5 0.75 0
0.4375 0.8125 0
0.5 0.8125 0
0.5 0.75 0
0.5625 0.75 0
0.5 0.8125 0
0.5625 0.8125 0
0.5625 0.75 0
0.625 0.75 0
0.5625 0.8125 0
0.625 0.8125 0
0.625 0.75 0
0.6875 0.75 0
0.625 0.8125 0
0.6875 0.8125 0
0.6875 0.75 0
0.75 0.75 0
0.6875 0.8125 0
0.75 0.8125 0
0.75 0.75 0
0.8125 0.75 0
0.75 0.8125 0
0.8125 0.8125 0
0.8125 0.75 0
0.875 0.75 0
0.8125 0.8125 0
0.875 0.8125 0
0.875 0.75 0
0.9375 0.75 0
0.875 0.8125 0
0.9375 0.8125 0
0.9375 0.75 0
1 0.75 0
0.9375 0.8125 0
1 0.8125 0
0 0.8125 0
0.0625 0.8125 0
0 0.875 0
0.0625 0.875 0
0.0625 0.8125 0
0.125 0.8125 0
0.0625 0.875 0
0.125 0.875 0
0.125 0.8125 0
0.1875 0.8125 0
0.125 0.875 0
0.1875 0.875 0
0.1875 0.8125 0
0.25 0.8125 0
0.1875 0.875 0
0.25 0.875 0
0.25 0.8125 0
0.3125 0.8125 0
0.25 0.875 0
0.3125 0.875 0
0.3125 0.8125 0
0.375 0.8125 0
0.3125 0.875 0
0.375 0.875 0
0.375 0.8125 0
0.4375 0.8125 0
0.375 0.875 0
0.4375 0.875 0
0.4375 0.8125 0
0.5 0.8125 0
0.4375 0.875 0
0.5 0.875 0
0.5 0.8125 0
0.5625 0.8125 0
0.5 0.875 0
0.5625 0.875 0
0.5625 0.8125 0
0.625 0.8125 0
0.5625 0.875 0
0.625 0.875 0
0.625 0.8125 0
0.6875 0.8125 0
0.625 0.875 0
0.6875 0.875 0
0.6875 0.8125 0
0.75 0.8125 0
0.6875 0.875 0
0.75 0.875 0
0.75 0.8125 0
0.8125 0.8125 0
0.75 0.875 0
0.8125 0.875 0
0.8125 0.8125 0
0.875 0.8125 0
0.8125 0.875 0
0.875 0.875 0
0.875 0.8125 0
0.9375 0.8125 0
0.875 0.875 0
0.9375 0.875 0
0.9375 0.8125 0
1 0.8125 0
0.9375 0.875 0
1 0.875 0
0 0.875 0
0.0625 0.875 0
0 0.9375 0
0.0625 0.9375 0
0.0625 0.875 0
0.125 0.875 0
0.0625 0.9375 0
0.125 0.9375 0
0.125 0.875 0
0.1875 0.875 0
0.125 0.9375 0
0.1875 0.9375 0
0.1875 0.875 0
0.25 0.875 0
0.1875 0.9375 0
0.25 0.9375 0
0.25 0.875 0
0.3125 0.875 0
0.25 0.9375 0
0.3125 0.9375 0
0.3125 0.875 0
0.375 0.875 0
0.3125 0.9375 0
0.375 0.9375 0
0.375 0.875 0
0.4375 0.875 0
0.375 0.9375 0
0.4375 0.9375 0
0.4375 0.875 0
0.5 0.875 0
0.4375 0.9375 0
0.5 0.9375 0
0.5 0.875 0
0.5625 0.875 0
0.5 0.9375 0
0.5625 0.9375 0
0.5625 0.875 0
0.625 0.875 0
0.5625 0.9375 0
0.625 0.9375 0
0.625 0.875 0
0.6875 0.875 0
0.625 0.9375 0
0.6875 0.9375 0
0.6875 0.875 0
0.75 0.875 0
0.6875 0.9375 0
0.75 0.9375 0
0.75 0.875 0
0.8125 0.875 0
0.75 0.9375 0
0.8125 0.9375 0
0.8125 0.875 0
0.875 0.875 0
0.8125 0.9375 0
0.875 0.9375 0
0.875 0.875 0
0.9375 0.875 0
0.875 0.9375 0
0.9375 0.9375 0
0.9375 0.875 0
1 0.875 0
0.9375 0.9375 0
1 0.9375 0
0 0.9375 0
0.0625 0.9375 0
0 1 0
0.0625 1 0
0.0625 0.9375 0
0.125 0.9375 0
0.0625 1 0
0.125 1 0
0.125 0.9375 0
0.1875 0.9375 0
0.125 1 0
0.1875 1 0
0.1875 0.9375 0
0.25 0.9375 0
0.1875 1 0
0.25 1 0
0.25 0.9375 0
0.3125 0.9375 0
0.25 1 0
0.3125 1 0
0.3125 0.9375 0
0.375 0.9375 0
0.3125 1 0
0.375 1 0
0.375 0.9375 0
0.4375 0.9375 0
0.375 1 0
0.4375 1 0
0.4375 0.9375 0
0.5 0.9375 0
0.4375 1 0
0.5 1 0
0.5 0.9375 0
0.5625 0.9375 0
0.5 1 0
0.5625 1 0
0.5625 0.9375 0
0.625 0.9375 0
0.5625 1 0
0.625 1 0
0.625 0.9375 0
0.6875 0.9375 0
0.625 1 0
0.6875 1 0
0.6875 0.9375 0
0.75 0.9375 0
0.6875 1 0
0.75 1 0
0.75 0.9375 0
0.8125 0.9375 0
0.75 1 0
0.8125 1 0
0.8125 0.9375 0
0.875 0.9375 0
0.8125 1 0
0.875 1 0
0.875 0.9375 0
0.9375 0.9375 0
0.875 1 0
0.9375 1 0
0.9375 0.9375 0
1 0.9375 0
0.9375 1 0
1 1 0
0.75 0 0
0.78125 0 0
0.75 0.03125 0
0.78125 0.03125 0
0.78125 0 0
0.8125 0 0
0.78125 0.03125 0
0.8125 0.03125 0
0.75 0.03125 0
0.78125 0.03125 0
0.75 0.0625 0
0.78125 0.0625 0
0.78125 0.03125 0
0.8125 0.03125 0
0.78125 0.0625 0
0.8125 0.0625 0
0.1875 0.0625 0
0.21875 0.0625 0
0.1875 0.09375 0
0.21875 0.09375 0
0.21875 0.0625 0
0.25 0.0625 0
0.21875 0.09375 0
0.25 0.09375 0
0.1875 0.09375 0
0.21875 0.09375 0
0.1875 0.125 0
0.21875 0.125 0
0.21875 0.09375 0
0.25 0.09375 0
0.21875 0.125 0
0.25 0.125 0
0.75 0.0625 0
0.78125 0.0625 0
0.75 0.09375 0
0.78125 0.09375 0
0.78125 0.0625 0
0.8125 0.0625 0
0.78125 0.09375 0
0.8125 0.09375 0
0.75 0.09375 0
0.78125 0.09375 0
0.75 0.125 0
0.78125 0.125 0
0.78125 0.09375 0
0.8125 0.09375 0
0.78125 0.125 0
0.8125 0.125 0
0.1875 0.125 0
0.21875 0.125 0
0.1875 0.15625 0
0.21875 0.15625 0
0.21875 0.125 0
0.25 0.125 0
0.21875 0.15625 0
0.25 0.15625 0
0.1875 0.15625 0
0.21875 0.15625 0
0.1875 0.1875 0
0.21875 0.1875 0
0.21875 0.15625 0
0.25 0.15625 0
0.21875 0.1875 0
0.25 0.1875 0
0.25 0.15625 0
0.28125 0.15625 0
0.25 0.1875 0
0.28125 0.1875 0
0.75 0.125 0
0.78125 0.125 0
0.75 0.15625 0
0.78125 0.15625 0
0.78125 0.125 0
0.8125 0.125 0
0.78125 0.15625 0
0.8125 0.15625 0
0.75 0.15625 0
0.78125 0.15625 0
0.75 0.1875 0
0.78125 0.1875 0
0.78125 0.15625 0
0.8125 0.15625 0
0.78125 0.1875 0
0.8125 0.1875 0
0.25 0.1875 0
0.28125 0.1875 0
0.25 0.21875 0
0.28125 0.21875 0
0.25 0.21875 0
0.28125 0.21875 0
0.25 0.25 0
0.28125 0.25 0
0.71875 0.1875 0
0.75 0.1875 0
0.71875 0.21875 0
0.75 0.21875 0
0.71875 0.21875 0
0.75 0.21875 0
0.71875 0.25 0
0.75 0.25 0
0.75 0.1875 0
0.78125 0.1875 0
0.75 0.21875 0
0.78125 0.21875 0
0.78125 0.1875 0
0.8125 0.1875 0
0.78125 0.21875 0
0.8125 0.21875 0
0.75 0.21875 0
0.78125 0.21875 0
0.75 0.25 0
0.78125 0.25 0
0.78125 0.21875 0
0.8125 0.21875 0
0.78125 0.25 0
0.8125 0.25 0
0.25 0.25 0
0.28125 0.25 0
0.25 0.28125 0
0.28125 0.28125 0
0.28125 0.25 0
0.3125 0.25 0
0.28125 0.28125 0
0.3125 0.28125 0
0.25 0.28125 0
0.28125 0.28125 0
0.25 0.3125 0
0.28125 0.3125 0
0.28125 0.28125 0
0.3125 0.28125 0
0.28125 0.3125 0
0.3125 0.3125 0
0.3125 0.28125 0
0.34375 0.28125 0
0.3125 0.3125 0
0.34375 0.3125 0
0.65625 0.28125 0
0.6875 0.28125 0
0.65625 0.3125 0
0.6875 0.3125 0
0.6875 0.25 0
0.71875 0.25 0
0.6875 0.28125 0
0.71875 0.28125 0
0.71875 0.25 0
0.75 0.25 0
0.71875 0.28125 0
0.75 0.28125 0
0.6875 0.28125 0
0.71875 0.28125 0
0.6875 0.3125 0
0.71875 0.3125 0
0.71875 0.28125 0
0.75 0.28125 0
0.71875 0.3125 0
0.75 0.3125 0
0.3125 0.3125 0
0.34375 0.3125 0
0.3125 0.34375 0
0.34375 0.34375 0
0.34375 0.3125 0
0.375 0.3125 0
0.34375 0.34375 0
0.375 0.34375 0
0.3125 0.34375 0
0.34375 0.34375 0
0.3125 0.375 0
0.34375 0.375 0
0.34375 0.34375 0
0.375 0.34375 0
0.34375 0.375 0
0.375 0.375 0
0.375 0.3125 0
0.40625 0.3125 0
0.375 0.34375 0
0.40625 0.34375 0
0.375 0.34375 0
0.40625 0.34375 0
0.375 0.375 0
0.40625 0.375 0
0.40625 0.34375 0
0.4375 0.34375 0
0.40625 0.375 0
0.4375 0.375 0
0.4375 0.34375 0
0.46875 0.34375 0
0.4375 0.375 0
0.46875 0.375 0
0.46875 0.34375 0
0.5 0.34375 0
0.46875 0.375 0
0.5 0.375 0
0.5 0.34375 0
0.53125 0.34375 0
0.5 0.375 0
0.53125 0.375 0
0.53125 0.34375 0
0.5625 0.34375 0
0.53125 0.375 0
0.5625 0.375 0
0.59375 0.3125 0
0.625 0.3125 0
0.59375 0.34375 0
0.625 0.34375 0
0.5625 0.34375 0
0.59375 0.34375 0
0.5625 0.375 0
0.59375 0.375 0
0.59375 0.34375 0
0.625 0.34375 0
0.59375 0.375 0
0.625 0.375 0
0.625 0.3125 0
0.65625 0.3125 0
0.625 0.34375 0
0.65625 0.34375 0
0.65625 0.3125 0
0.6875 0.3125 0
0.65625 0.34375 0
0.6875 0.34375 0
0.625 0.34375 0
0.65625 0.34375 0
0.625 0.375 0
0.65625 0.375 0
0.65625 0.34375 0
0.6875 0.34375 0
0.65625 0.375 0
0.6875 0.375 0
0.1875 0 0
0.21875 0 0
0.1875 0.03125 0
0.21875 0.03125 0
0.21875 0 0
0.25 0 0
0.21875 0.03125 0
0.25 0.03125 0
0.1875 0.03125 0
0.21875 0.03125 0
0.1875 0.0625 0
0.21875 0.0625 0
0.21875 0.03125 0
0.25 0.03125 0
0.21875 0.0625 0
0.25 0.0625 0
0.8125 0.0625 0
0.84375 0.0625 0
0.8125 0.09375 0
0.84375 0.09375 0
0.84375 0.0625 0
0.875 0.0625 0
0.84375 0.09375 0
0.875 0.09375 0
0.8125 0.09375 0
0.84375 0.09375 0
0.8125 0.125 0
0.84375 0.125 0
0.84375 0.09375 0
0.875 0.09375 0
0.84375 0.125 0
0.875 0.125 0
0.8125 0.125 0
0.84375 0.125 0
0.8125 0.15625 0
0.84375 0.15625 0
0.84375 0.125 0
0.875 0.125 0
0.84375 0.15625 0
0.875 0.15625 0
0.8125 0.15625 0
0.84375 0.15625 0
0.8125 0.1875 0
0.84375 0.1875 0
0.84375 0.15625 0
0.875 0.15625 0
0.84375 0.1875 0
0.875 0.1875 0
0.1875 0.1875 0
0.21875 0.1875 0
0.1875 0.21875 0
0.21875 0.21875 0
0.21875 0.1875 0
0.25 0.1875 0
0.21875 0.21875 0
0.25 0.21875 0
0.1875 0.21875 0
0.21875 0.21875 0
0.1875 0.25 0
[...]
POINT_DATA 6796
SCALARS solution double 1
LOOKUP_TABLE default
0 0 0 7.82999e-07 0 0 7.40658e-08 0 0 7.82999e-07 0 1.40818e-06 0 9.40384e-07 0 7.43578e-07 4.70645e-07 0 4.13877e-07 0 0 7.43578e-07 0 5.74838e-07 7.43578e-07 1.45865e-06 5.74838e-07 1.12487e-06 1.45865e-06 2.11327e-06 1.12487e-06 1.62415e-06 2.11327e-06 2.67084e-06 1.62415e-06 2.04569e-06 2.67084e-06 3.09238e-06 2.04569e-06 2.36347e-06 1.72659e-06 1.27391e-06 1.41418e-06 1.056e-06 1.27391e-06 8.36461e-07 1.056e-06 6.99537e-07 8.36461e-07 4.13877e-07 6.99537e-07 3.4799e-07 4.13877e-07 0 3.4799e-07 0 0 5.74838e-07 0 4.30667e-07 5.74838e-07 1.12487e-06 4.30667e-07 8.41581e-07 1.12487e-06 1.62415e-06 8.41581e-07 1.21289e-06 1.62415e-06 2.04569e-06 1.21289e-06 1.52514e-06 2.04569e-06 2.36347e-06 1.52514e-06 1.76085e-06 2.36347e-06 2.55657e-06 1.76085e-06 1.90689e-06 2.55657e-06 2.61471e-06 1.90689e-06 1.95725e-06 2.61471e-06 2.54189e-06 1.95725e-06 1.91469e-06 2.54189e-06 2.35657e-06 1.91469e-06 1.79053e-06 2.35657e-06 2.08704e-06 1.79053e-06 1.60213e-06 2.08704e-06 1.76407e-06 1.60213e-06 1.36894e-06 1.76407e-06 1.41418e-06 1.36894e-06 1.10875e-06 1.41418e-06 1.056e-06 1.10875e-06 8.35194e-07 1.056e-06 6.99537e-07 8.35194e-07 5.56929e-07 6.99537e-07 3.4799e-07 5.56929e-07 2.78181e-07 3.4799e-07 0 2.78181e-07 0 0 4.30667e-07 0 3.06213e-07 4.30667e-07 8.41581e-07 3.06213e-07 5.97942e-07 8.41581e-07 1.21289e-06 5.97942e-07 8.60961e-07 1.21289e-06 1.52514e-06 8.60961e-07 1.08187e-06 1.52514e-06 1.76085e-06 1.08187e-06 1.24913e-06 1.76085e-06 1.90689e-06 1.24913e-06 1.35447e-06 1.90689e-06 1.95725e-06 1.35447e-06 1.39421e-06 1.95725e-06 1.91469e-06 1.39421e-06 1.37013e-06 1.91469e-06 1.79053e-06 1.37013e-06 1.28909e-06 1.79053e-06 1.60213e-06 1.28909e-06 1.16169e-06 1.60213e-06 1.36894e-06 1.16169e-06 1.00007e-06 1.36894e-06 1.10875e-06 1.00007e-06 8.15802e-07 1.10875e-06 8.35194e-07 8.15802e-07 6.18329e-07 8.35194e-07 5.56929e-07 6.18329e-07 4.14269e-07 5.56929e-07 2.78181e-07 4.14269e-07 2.07534e-07 2.78181e-07 0 2.07534e-07 0 0 3.06213e-07 0 1.96279e-07 3.06213e-07 5.97942e-07 1.96279e-07 3.83136e-07 5.97942e-07 8.60961e-07 3.83136e-07 5.51441e-07 8.60961e-07 1.08187e-06 5.51441e-07 6.92793e-07 1.08187e-06 1.24913e-06 6.92793e-07 8.00142e-07 1.24913e-06 1.35447e-06 8.00142e-07 8.68556e-07 1.35447e-06 1.39421e-06 8.68556e-07 8.95897e-07 1.39421e-06 1.37013e-06 8.95897e-07 8.83165e-07 1.37013e-06 1.28909e-06 8.83165e-07 8.34287e-07 1.28909e-06 1.16169e-06 8.34287e-07 7.55349e-07 1.16169e-06 1.00007e-06 7.55349e-07 6.53455e-07 1.00007e-06 8.15802e-07 6.53455e-07 5.35563e-07 8.15802e-07 6.18329e-07 5.35563e-07 4.07587e-07 6.18329e-07 4.14269e-07 4.07587e-07 2.73935e-07 4.14269e-07 2.07534e-07 2.73935e-07 1.37503e-07 2.07534e-07 0 1.37503e-07 0 0 1.96279e-07 0 9.58116e-08 1.96279e-07 3.83136e-07 9.58116e-08 1.86995e-07 3.83136e-07 5.51441e-07 1.86995e-07 2.69098e-07 5.51441e-07 6.92793e-07 2.69098e-07 3.38069e-07 6.92793e-07 8.00142e-07 3.38069e-07 3.90561e-07 8.00142e-07 8.68556e-07 3.90561e-07 4.24257e-07 8.68556e-07 8.95897e-07 4.24257e-07 4.3816e-07 8.95897e-07 8.83165e-07 4.3816e-07 4.32717e-07 8.83165e-07 8.34287e-07 4.32717e-07 4.09712e-07 8.34287e-07 7.55349e-07 4.09712e-07 3.7193e-07 7.55349e-07 6.53455e-07 3.7193e-07 3.22652e-07 6.53455e-07 5.35563e-07 3.22652e-07 2.65147e-07 5.35563e-07 4.07587e-07 2.65147e-07 2.02258e-07 4.07587e-07 2.73935e-07 2.02258e-07 1.3618e-07 2.73935e-07 1.37503e-07 1.3618e-07 6.84333e-08 1.37503e-07 0 6.84333e-08 0 0 9.58116e-08 0 0 9.58116e-08 1.86995e-07 0 0 1.86995e-07 2.69098e-07 0 0 2.69098e-07 3.38069e-07 0 0 3.38069e-07 3.90561e-07 0 0 3.90561e-07 4.24257e-07 0 0 4.24257e-07 4.3816e-07 0 0 4.3816e-07 4.32717e-07 0 0 4.32717e-07 4.09712e-07 0 0 4.09712e-07 3.7193e-07 0 0 3.7193e-07 3.22652e-07 0 0 3.22652e-07 2.65147e-07 0 0 2.65147e-07 2.02258e-07 0 0 2.02258e-07 1.3618e-07 0 0 1.3618e-07 6.84333e-08 0 0 6.84333e-08 0 0 0 0 0 6.36864e-08 7.36107e-08 0 0 7.36107e-08 7.78372e-08 6.36864e-08 7.36107e-08 1.25428e-07 1.54376e-07 7.36107e-08 7.78372e-08 1.54376e-07 1.63345e-07 3.11164e-06 4.0959e-06 4.39387e-06 5.74018e-06 4.0959e-06 5.40633e-06 5.74018e-06 7.50457e-06 4.39387e-06 5.74018e-06 5.39499e-06 6.97723e-06 5.74018e-06 7.50457e-06 6.97723e-06 9.00501e-06 1.25428e-07 1.54376e-07 2.05938e-07 2.56229e-07 1.54376e-07 1.63345e-07 2.56229e-07 2.65746e-07 2.05938e-07 2.56229e-07 3.45746e-07 3.97851e-07 2.56229e-07 2.65746e-07 3.97851e-07 3.94363e-07 5.39499e-06 6.97723e-06 6.08761e-06 7.77844e-06 6.97723e-06 9.00501e-06 7.77844e-06 9.88489e-06 6.08761e-06 7.77844e-06 6.48052e-06 8.17061e-06 7.77844e-06 9.88489e-06 8.17061e-06 1.02075e-05 9.88489e-06 1.25568e-05 1.02075e-05 1.26875e-05 3.45746e-07 3.97851e-07 5.77204e-07 5.92061e-07 3.97851e-07 3.94363e-07 5.92061e-07 5.54289e-07 5.77204e-07 5.92061e-07 8.98126e-07 8.35735e-07 5.92061e-07 5.54289e-07 8.35735e-07 7.42411e-07 1.02075e-05 1.26875e-05 1.00894e-05 1.22671e-05 1.00894e-05 1.22671e-05 9.66187e-06 1.15043e-05 9.06346e-07 8.98126e-07 1.43531e-06 1.27065e-06 1.43531e-06 1.27065e-06 1.95197e-06 1.64208e-06 8.98126e-07 8.35735e-07 1.27065e-06 1.10877e-06 8.35735e-07 7.42411e-07 1.10877e-06 9.46977e-07 1.27065e-06 1.10877e-06 1.64208e-06 1.38208e-06 1.10877e-06 9.46977e-07 1.38208e-06 1.15103e-06 9.66187e-06 1.15043e-05 9.04406e-06 1.05689e-05 1.15043e-05 1.35113e-05 1.05689e-05 1.21409e-05 9.04406e-06 1.05689e-05 8.32958e-06 9.57841e-06 1.05689e-05 1.21409e-05 9.57841e-06 1.08044e-05 1.21409e-05 1.36691e-05 1.08044e-05 1.1925e-05 3.66359e-06 2.922e-06 4.06952e-06 3.2939e-06 2.3544e-06 1.95197e-06 2.922e-06 2.38266e-06 1.95197e-06 1.64208e-06 2.38266e-06 1.96716e-06 2.922e-06 2.38266e-06 3.2939e-06 2.69499e-06 2.38266e-06 1.96716e-06 2.69499e-06 2.21905e-06 1.08044e-05 1.1925e-05 9.56618e-06 1.04012e-05 1.1925e-05 1.28199e-05 1.04012e-05 1.10253e-05 9.56618e-06 1.04012e-05 8.4504e-06 9.08641e-06 1.04012e-05 1.10253e-05 9.08641e-06 9.53842e-06 1.28199e-05 1.33352e-05 1.10253e-05 1.13432e-05 1.10253e-05 1.13432e-05 9.53842e-06 9.74807e-06 1.13432e-05 1.12713e-05 9.74807e-06 9.67078e-06 1.12713e-05 1.07714e-05 9.67078e-06 9.29292e-06 1.07714e-05 9.88074e-06 9.29292e-06 8.64455e-06 9.88074e-06 8.71835e-06 8.64455e-06 7.79866e-06 8.71835e-06 7.44901e-06 7.79866e-06 6.85295e-06 6.39561e-06 5.08592e-06 6.22457e-06 5.14168e-06 7.44901e-06 6.22457e-06 6.85295e-06 5.90205e-06 6.22457e-06 5.14168e-06 5.90205e-06 5.01523e-06 5.08592e-06 4.06952e-06 5.14168e-06 4.23355e-06 4.06952e-06 3.2939e-06 4.23355e-06 3.49138e-06 5.14168e-06 4.23355e-06 5.01523e-06 4.22863e-06 4.23355e-06 3.49138e-06 4.22863e-06 3.55081e-06 0 0 1.61424e-06 2.13476e-06 0 0 2.13476e-06 2.83422e-06 1.61424e-06 2.13476e-06 3.11164e-06 4.0959e-06 2.13476e-06 2.83422e-06 4.0959e-06 5.40633e-06 1.63345e-07 1.55536e-07 2.65746e-07 2.48331e-07 1.55536e-07 1.35566e-07 2.48331e-07 2.13457e-07 2.65746e-07 2.48331e-07 3.94363e-07 3.58082e-07 2.48331e-07 2.13457e-07 3.58082e-07 3.02067e-07 3.94363e-07 3.58082e-07 5.54289e-07 4.86755e-07 3.58082e-07 3.02067e-07 4.86755e-07 4.02087e-07 5.54289e-07 4.86755e-07 7.42411e-07 6.31727e-07 4.86755e-07 4.02087e-07 6.31727e-07 5.11511e-07 6.48052e-06 8.17061e-06 6.6096e-06 8.21872e-06 8.17061e-06 1.02075e-05 8.21872e-06 1.00894e-05 6.6096e-06 8.21872e-06 6.52601e-06 8.00494e-06 8.21872e-06 1.00894e-05 8.00494e-06 9.66187e-06 7.42411e-07 6.31727e-07 9.46977e-07 7.85701e-07 6.31727e-07 5.11511e-07 7.85701e-07 6.2568e-07 9.46977e-07 7.85701e-07 1.15103e-06 9.38349e-07 7.85701e-07 6.2568e-07 9.38349e-07 7.38147e-07 6.52601e-06 8.00494e-06 6.28499e-06 7.61107e-06 8.00494e-06 9.66187e-06 7.61107e-06 9.04406e-06 6.28499e-06 7.61107e-06 5.93781e-06 7.10753e-06 7.61107e-06 9.04406e-06 7.10753e-06 8.32958e-06 1.64208e-06 1.38208e-06 1.96716e-06 1.628e-06 1.38208e-06 1.15103e-06 1.628e-06 1.33741e-06 1.96716e-06 1.628e-06 2.21905e-06 1.82713e-06 1.628e-06 1.33741e-06 1.82713e-06 1.49274e-06 1.15103e-06 9.38349e-07 1.33741e-06 1.07884e-06 9.38349e-07 7.38147e-07 1.07884e-06 8.42025e-07 1.33741e-06 1.07884e-06 1.49274e-06 1.19814e-06 1.07884e-06 8.42025e-07 1.19814e-06 9.31282e-07 8.32958e-06 9.57841e-06 7.58433e-06 8.60524e-06 9.57841e-06 1.08044e-05 8.60524e-06 9.56618e-06 7.58433e-06 8.60524e-06 6.85058e-06 7.68856e-06 8.60524e-06 9.56618e-06 7.68856e-06 8.4504e-06 3.2939e-06 2.69499e-06 3.49138e-06 2.88699e-06 2.69499e-06 2.21905e-06 2.88699e-06 2.389e-06 3.49138e-06 2.88699e-06 3.55081e-06 2.97343e-06 2.88699e-06 2.389e-06 2.97343e-06 2.48087e-06 2.21905e-06 1.82713e-06 2.389e-06 1.97017e-06 1.82713e-06 1.49274e-06 1.97017e-06 1.60921e-06 2.389e-06 1.97017e-06 2.48087e-06 2.05624e-06 1.97017e-06 1.60921e-06 2.05624e-06 1.68436e-06 8.4504e-06 9.08641e-06 7.45891e-06 7.95535e-06 9.08641e-06 9.53842e-06 7.95535e-06 8.2961e-06 7.45891e-06 7.95535e-06 6.58335e-06 6.98046e-06 7.95535e-06 8.2961e-06 6.98046e-06 7.24735e-06 9.53842e-06 9.74807e-06 8.2961e-06 8.44522e-06 9.74807e-06 9.67078e-06 8.44522e-06 8.37861e-06 8.2961e-06 8.44522e-06 7.24735e-06 7.36167e-06 8.44522e-06 8.37861e-06 7.36167e-06 7.31021e-06 9.67078e-06 9.29292e-06 8.37861e-06 8.09278e-06 9.29292e-06 8.64455e-06 8.09278e-06 7.61033e-06 8.37861e-06 8.09278e-06 7.31021e-06 7.09357e-06 8.09278e-06 7.61033e-06 7.09357e-06 6.72845e-06 8.64455e-06 7.79866e-06 7.61033e-06 6.97808e-06 7.79866e-06 6.85295e-06 6.97808e-06 6.25727e-06 7.61033e-06 6.97808e-06 6.72845e-06 6.24603e-06 6.97808e-06 6.25727e-06 6.24603e-06 5.68647e-06 6.85295e-06 5.90205e-06 6.25727e-06 5.50937e-06 5.90205e-06 5.01523e-06 5.50937e-06 4.78383e-06 6.25727e-06 5.50937e-06 5.68647e-06 5.09113e-06 5.50937e-06 4.78383e-06 5.09113e-06 4.49557e-06 5.01523e-06 4.22863e-06 4.78383e-06 4.11217e-06 4.22863e-06 3.55081e-06 4.11217e-06 3.50868e-06 4.78383e-06 4.11217e-06 4.49557e-06 3.92541e-06 4.11217e-06 3.50868e-06 3.92541e-06 3.39559e-06 3.55081e-06 2.97343e-06 3.50868e-06 2.97495e-06 2.97343e-06 2.48087e-06 2.97495e-06 2.50512e-06 3.50868e-06 2.97495e-06 3.39559e-06 2.91208e-06 2.97495e-06 2.50512e-06 2.91208e-06 2.47456e-06 0 0 8.946e-07 1.21377e-06 0 0 1.21377e-06 1.61424e-06 8.946e-07 1.21377e-06 1.73552e-06 2.3482e-06 1.21377e-06 1.61424e-06 2.3482e-06 3.11164e-06 0 0 7.78372e-08 7.47564e-08 0 0 7.47564e-08 6.56821e-08 7.78372e-08 7.47564e-08 1.63345e-07 1.55536e-07 7.47564e-08 6.56821e-08 1.55536e-07 1.35566e-07 1.73552e-06 2.3482e-06 2.47615e-06 3.33537e-06 2.3482e-06 3.11164e-06 3.33537e-06 4.39387e-06 2.47615e-06 3.33537e-06 3.08245e-06 4.12746e-06 3.33537e-06 4.39387e-06 4.12746e-06 5.39499e-06 1.40818e-06 2.1929e-06 1.62995e-06 2.52874e-06 2.1929e-06 3.08245e-06 2.52874e-06 3.53593e-06 1.62995e-06 2.52874e-06 1.78452e-06 2.75764e-06 2.52874e-06 3.53593e-06 2.75764e-06 3.83362e-06 3.08245e-06 4.12746e-06 3.53593e-06 4.70113e-06 4.12746e-06 5.39499e-06 4.70113e-06 6.08761e-06 3.53593e-06 4.70113e-06 3.83362e-06 5.05675e-06 4.70113e-06 6.08761e-06 5.05675e-06 6.48052e-06 3.02067e-07 2.34169e-07 4.02087e-07 3.07549e-07 2.34169e-07 1.59265e-07 3.07549e-07 2.07435e-07 4.02087e-07 3.07549e-07 5.11511e-07 3.86238e-07 3.07549e-07 2.07435e-07 3.86238e-07 2.58423e-07 0 8.76485e-07 0 9.23047e-07 8.76485e-07 1.78452e-06 9.23047e-07 1.87467e-06 0 9.23047e-07 0 9.41245e-07 9.23047e-07 1.87467e-06 9.41245e-07 1.90681e-06 1.78452e-06 2.75764e-06 1.87467e-06 2.88475e-06 2.75764e-06 3.83362e-06 2.88475e-06 3.98572e-06 1.87467e-06 2.88475e-06 1.90681e-06 2.92159e-06 2.88475e-06 3.98572e-06 2.92159e-06 4.01153e-06 3.83362e-06 5.05675e-06 3.98572e-06 5.21375e-06 5.05675e-06 6.48052e-06 5.21375e-06 6.6096e-06 3.98572e-06 5.21375e-06 4.01153e-06 5.20375e-06 5.21375e-06 6.6096e-06 5.20375e-06 6.52601e-06 5.11511e-07 3.86238e-07 6.2568e-07 4.67286e-07 3.86238e-07 2.58423e-07 4.67286e-07 3.10483e-07 6.2568e-07 4.67286e-07 7.38147e-07 5.46692e-07 4.67286e-07 3.10483e-07 5.46692e-07 3.61279e-07 2.58423e-07 1.29434e-07 3.10483e-07 1.54909e-07 1.29434e-07 0 1.54909e-07 0 3.10483e-07 1.54909e-07 3.61279e-07 1.79704e-07 1.54909e-07 0 1.79704e-07 0 0 9.41245e-07 0 9.35227e-07 9.41245e-07 1.90681e-06 9.35227e-07 1.8899e-06 0 9.35227e-07 0 9.09765e-07 9.35227e-07 1.8899e-06 9.09765e-07 1.83408e-06 1.90681e-06 2.92159e-06 1.8899e-06 2.88347e-06 2.92159e-06 4.01153e-06 2.88347e-06 3.9352e-06 1.8899e-06 2.88347e-06 1.83408e-06 2.78709e-06 2.88347e-06 3.9352e-06 2.78709e-06 3.78191e-06 4.01153e-06 5.20375e-06 3.9352e-06 5.06358e-06 5.20375e-06 6.52601e-06 5.06358e-06 6.28499e-06 3.9352e-06 5.06358e-06 3.78191e-06 4.82966e-06 5.06358e-06 6.28499e-06 4.82966e-06 5.93781e-06 7.38147e-07 5.46692e-07 8.42025e-07 6.20131e-07 5.46692e-07 3.61279e-07 6.20131e-07 4.08274e-07 8.42025e-07 6.20131e-07 9.31282e-07 6.83702e-07 6.20131e-07 4.08274e-07 6.83702e-07 4.49134e-07 3.61279e-07 1.79704e-07 4.08274e-07 2.02643e-07 1.79704e-07 0 2.02643e-07 0 4.08274e-07 2.02643e-07 4.49134e-07 2.22634e-07 2.02643e-07 0 2.22634e-07 0 0 9.09765e-07 0 8.69684e-07 9.09765e-07 1.83408e-06 8.69684e-07 1.74942e-06 0 8.69684e-07 0 8.19451e-07 8.69684e-07 1.74942e-06 8.19451e-07 1.64508e-06 1.83408e-06 2.78709e-06 1.74942e-06 2.64858e-06 2.78709e-06 3.78191e-06 2.64858e-06 3.5751e-06 1.74942e-06 2.64858e-06 1.64508e-06 2.4823e-06 2.64858e-06 3.5751e-06 2.4823e-06 3.33493e-06 3.78191e-06 4.82966e-06 3.5751e-06 4.53432e-06 4.82966e-06 5.93781e-06 4.53432e-06 5.52738e-06 3.5751e-06 4.53432e-06 3.33493e-06 4.20408e-06 4.53432e-06 5.52738e-06 4.20408e-06 5.08685e-06 5.93781e-06 7.10753e-06 5.52738e-06 6.54899e-06 7.10753e-06 8.32958e-06 6.54899e-06 7.58433e-06 5.52738e-06 6.54899e-06 5.08685e-06 5.97452e-06 6.54899e-06 7.58433e-06 5.97452e-06 6.85058e-06 1.49274e-06 1.19814e-06 1.60921e-06 1.29027e-06 1.19814e-06 9.31282e-07 1.29027e-06 1.00161e-06 1.60921e-06 1.29027e-06 1.68436e-06 1.35259e-06 1.29027e-06 1.00161e-06 1.35259e-06 1.05076e-06 9.31282e-07 6.83702e-07 1.00161e-06 7.34473e-07 6.83702e-07 4.49134e-07 7.34473e-07 4.82046e-07 1.00161e-06 7.34473e-07 1.05076e-06 7.70735e-07 7.34473e-07 4.82046e-07 7.70735e-07 5.05888e-07 4.49134e-07 2.22634e-07 4.82046e-07 2.38812e-07 2.22634e-07 0 2.38812e-07 0 4.82046e-07 2.38812e-07 5.05888e-07 2.50625e-07 2.38812e-07 0 2.50625e-07 0 1.64508e-06 2.4823e-06 1.52888e-06 2.30018e-06 2.4823e-06 3.33493e-06 2.30018e-06 3.07755e-06 1.52888e-06 2.30018e-06 1.40709e-06 2.11156e-06 2.30018e-06 3.07755e-06 2.11156e-06 2.81524e-06 3.33493e-06 4.20408e-06 3.07755e-06 3.85929e-06 4.20408e-06 5.08685e-06 3.85929e-06 4.64011e-06 3.07755e-06 3.85929e-06 2.81524e-06 3.51462e-06 3.85929e-06 4.64011e-06 3.51462e-06 4.2033e-06 5.08685e-06 5.97452e-06 4.64011e-06 5.40998e-06 5.97452e-06 6.85058e-06 5.40998e-06 6.15293e-06 4.64011e-06 5.40998e-06 4.2033e-06 4.8712e-06 5.40998e-06 6.15293e-06 4.8712e-06 5.50392e-06 6.85058e-06 7.68856e-06 6.15293e-06 6.84597e-06 7.68856e-06 8.4504e-06 6.84597e-06 7.45891e-06 6.15293e-06 6.84597e-06 5.50392e-06 6.08242e-06 6.84597e-06 7.45891e-06 6.08242e-06 6.58335e-06 2.48087e-06 2.05624e-06 2.50512e-06 2.09002e-06 2.05624e-06 1.68436e-06 2.09002e-06 1.71982e-06 2.50512e-06 2.09002e-06 2.47456e-06 2.07904e-06 2.09002e-06 1.71982e-06 2.07904e-06 1.7198e-06 1.68436e-06 1.35259e-06 1.71982e-06 1.3853e-06 1.35259e-06 1.05076e-06 1.3853e-06 1.07834e-06 1.71982e-06 1.3853e-06 1.7198e-06 1.39063e-06 1.3853e-06 1.07834e-06 1.39063e-06 1.08549e-06 1.05076e-06 7.70735e-07 1.07834e-06 7.91994e-07 7.70735e-07 5.05888e-07 7.91994e-07 5.20251e-07 1.07834e-06 7.91994e-07 1.08549e-06 7.98768e-07 7.91994e-07 5.20251e-07 7.98768e-07 5.25353e-07 5.50392e-06 6.08242e-06 4.9084e-06 5.3959e-06 6.08242e-06 6.58335e-06 5.3959e-06 5.81155e-06 4.9084e-06 5.3959e-06 4.36654e-06 4.78104e-06 5.3959e-06 5.81155e-06 4.78104e-06 5.13063e-06 6.58335e-06 6.98046e-06 5.81155e-06 6.13644e-06 6.98046e-06 7.24735e-06 6.13644e-06 6.35271e-06 5.81155e-06 6.13644e-06 5.13063e-06 5.40168e-06 6.13644e-06 6.35271e-06 5.40168e-06 5.58196e-06 7.24735e-06 7.36167e-06 6.35271e-06 6.44625e-06 7.36167e-06 7.31021e-06 6.44625e-06 6.40979e-06 6.35271e-06 6.44625e-06 5.58196e-06 5.66242e-06 6.44625e-06 6.40979e-06 5.66242e-06 5.63908e-06 7.31021e-06 7.09357e-06 6.40979e-06 6.24539e-06 7.09357e-06 6.72845e-06 6.24539e-06 5.96541e-06 6.40979e-06 6.24539e-06 5.63908e-06 5.51437e-06 6.24539e-06 5.96541e-06 5.51437e-06 5.2975e-06 6.72845e-06 6.24603e-06 5.96541e-06 5.59132e-06 6.24603e-06 5.68647e-06 5.59132e-06 5.1504e-06 5.96541e-06 5.59132e-06 5.2975e-06 5.00365e-06 5.59132e-06 5.1504e-06 5.00365e-06 4.65195e-06 5.68647e-06 5.09113e-06 5.1504e-06 4.67134e-06 5.09113e-06 4.49557e-06 4.67134e-06 4.18005e-06 5.1504e-06 4.67134e-06 4.65195e-06 4.26281e-06 4.67134e-06 4.18005e-06 4.26281e-06 3.85535e-06 4.49557e-06 3.92541e-06 4.18005e-06 3.69678e-06 3.92541e-06 3.39559e-06 3.69678e-06 3.23515e-06 4.18005e-06 3.69678e-06 3.85535e-06 3.44545e-06 3.69678e-06 3.23515e-06 3.44545e-06 3.04482e-06 3.39559e-06 2.91208e-06 3.23515e-06 2.80261e-06 2.91208e-06 2.47456e-06 2.80261e-06 2.40173e-06 3.23515e-06 2.80261e-06 3.04482e-06 2.66095e-06 2.80261e-06 2.40173e-06 2.66095e-06 2.2977e-06 2.47456e-06 2.07904e-06 2.40173e-06 2.03171e-06 2.07904e-06 1.7198e-06 2.03171e-06 1.68975e-06 2.40173e-06 2.03171e-06 2.2977e-06 1.95615e-06 2.03171e-06 1.68975e-06 1.95615e-06 1.63541e-06 5.58196e-06 5.66242e-06 4.91187e-06 4.98349e-06 5.66242e-06 5.63908e-06 4.98349e-06 4.97093e-06 4.91187e-06 4.98349e-06 4.32443e-06 4.38949e-06 4.98349e-06 4.97093e-06 4.38949e-06 4.38541e-06 5.63908e-06 5.51437e-06 4.97093e-06 4.87653e-06 5.51437e-06 5.2975e-06 4.87653e-06 4.70724e-06 4.97093e-06 4.87653e-06 4.38541e-06 4.31427e-06 4.87653e-06 4.70724e-06 4.31427e-06 4.18136e-06 5.2975e-06 5.00365e-06 4.70724e-06 4.47404e-06 5.00365e-06 4.65195e-06 4.47404e-06 4.19069e-06 4.70724e-06 4.47404e-06 4.18136e-06 3.99478e-06 4.47404e-06 4.19069e-06 3.99478e-06 3.76464e-06 4.65195e-06 4.26281e-06 4.19069e-06 3.87204e-06 4.26281e-06 3.85535e-06 3.87204e-06 3.53237e-06 4.19069e-06 3.87204e-06 3.76464e-06 3.50194e-06 3.87204e-06 3.53237e-06 3.50194e-06 3.21751e-06 0 0 4.0215e-07 6.30336e-07 0 0 6.30336e-07 8.946e-07 4.0215e-07 6.30336e-07 7.82999e-07 1.22532e-06 6.30336e-07 8.946e-07 1.22532e-06 1.73552e-06 0 0 6.56821e-08 5.23502e-08 0 0 5.23502e-08 3.62438e-08 6.56821e-08 5.23502e-08 1.35566e-07 1.07415e-07 5.23502e-08 3.62438e-08 1.07415e-07 7.40658e-08 7.82999e-07 1.22532e-06 1.12304e-06 1.75394e-06 1.22532e-06 1.73552e-06 1.75394e-06 2.47615e-06 1.12304e-06 1.75394e-06 1.40818e-06 2.1929e-06 1.75394e-06 2.47615e-06 2.1929e-06 3.08245e-06 1.35566e-07 1.07415e-07 2.13457e-07 1.67518e-07 1.07415e-07 7.40658e-08 1.67518e-07 1.14808e-07 2.13457e-07 1.67518e-07 3.02067e-07 2.34169e-07 1.67518e-07 1.14808e-07 2.34169e-07 1.59265e-07 7.40658e-08 3.77202e-08 1.14808e-07 5.82694e-08 3.77202e-08 0 5.82694e-08 0 1.14808e-07 5.82694e-08 1.59265e-07 8.04902e-08 5.82694e-08 0 8.04902e-08 0 0 6.88714e-07 0 7.98688e-07 6.88714e-07 1.40818e-06 7.98688e-07 1.62995e-06 0 7.98688e-07 0 8.76485e-07 7.98688e-07 1.62995e-06 8.76485e-07 1.78452e-06 1.59265e-07 8.04902e-08 2.07435e-07 1.04356e-07 8.04902e-08 0 1.04356e-07 0 2.07435e-07 1.04356e-07 2.58423e-07 1.29434e-07 1.04356e-07 0 1.29434e-07 0 0 8.19451e-07 0 7.6292e-07 8.19451e-07 1.64508e-06 7.6292e-07 1.52888e-06 0 7.6292e-07 0 7.03227e-07 7.6292e-07 1.52888e-06 7.03227e-07 1.40709e-06 5.05888e-07 2.50625e-07 5.20251e-07 2.57849e-07 2.50625e-07 0 2.57849e-07 0 5.20251e-07 2.57849e-07 5.25353e-07 2.6056e-07 2.57849e-07 0 2.6056e-07 0 0 7.03227e-07 0 6.42787e-07 7.03227e-07 1.40709e-06 6.42787e-07 1.28447e-06 0 6.42787e-07 0 5.83356e-07 6.42787e-07 1.28447e-06 5.83356e-07 1.16443e-06 1.40709e-06 2.11156e-06 1.28447e-06 1.92339e-06 2.11156e-06 2.81524e-06 1.92339e-06 2.55674e-06 1.28447e-06 1.92339e-06 1.16443e-06 1.74049e-06 1.92339e-06 2.55674e-06 1.74049e-06 2.30792e-06 2.81524e-06 3.51462e-06 2.55674e-06 3.18004e-06 3.51462e-06 4.2033e-06 3.18004e-06 3.78655e-06 2.55674e-06 3.18004e-06 2.30792e-06 2.86179e-06 3.18004e-06 3.78655e-06 2.86179e-06 3.39552e-06 4.2033e-06 4.8712e-06 3.78655e-06 4.36682e-06 4.8712e-06 5.50392e-06 4.36682e-06 4.9084e-06 3.78655e-06 4.36682e-06 3.39552e-06 3.9006e-06 4.36682e-06 4.9084e-06 3.9006e-06 4.36654e-06 1.7198e-06