# vtk DataFile Version 3.0
#This file was generated by the deal.II library on 2020/5/26 at 18:42:22
ASCII
DATASET UNSTRUCTURED_GRID

POINTS 2644 double
0 0 0
0.0625 0 0
0 0.0625 0
0.0625 0.0625 0
0.0625 0 0
0.125 0 0
0.0625 0.0625 0
0.125 0.0625 0
0.125 0 0
0.1875 0 0
0.125 0.0625 0
0.1875 0.0625 0
0.8125 0 0
0.875 0 0
0.8125 0.0625 0
0.875 0.0625 0
0.875 0 0
0.9375 0 0
0.875 0.0625 0
0.9375 0.0625 0
0.9375 0 0
1 0 0
0.9375 0.0625 0
1 0.0625 0
0 0.0625 0
0.0625 0.0625 0
0 0.125 0
0.0625 0.125 0
0.0625 0.0625 0
0.125 0.0625 0
0.0625 0.125 0
0.125 0.125 0
0.125 0.0625 0
0.1875 0.0625 0
0.125 0.125 0
0.1875 0.125 0
0.875 0.0625 0
0.9375 0.0625 0
0.875 0.125 0
0.9375 0.125 0
0.9375 0.0625 0
1 0.0625 0
0.9375 0.125 0
1 0.125 0
0 0.125 0
0.0625 0.125 0
0 0.1875 0
0.0625 0.1875 0
0.0625 0.125 0
0.125 0.125 0
0.0625 0.1875 0
0.125 0.1875 0
0.125 0.125 0
0.1875 0.125 0
0.125 0.1875 0
0.1875 0.1875 0
0.875 0.125 0
0.9375 0.125 0
0.875 0.1875 0
0.9375 0.1875 0
0.9375 0.125 0
1 0.125 0
0.9375 0.1875 0
1 0.1875 0
0 0.1875 0
0.0625 0.1875 0
0 0.25 0
0.0625 0.25 0
0.0625 0.1875 0
0.125 0.1875 0
0.0625 0.25 0
0.125 0.25 0
0.125 0.1875 0
0.1875 0.1875 0
0.125 0.25 0
0.1875 0.25 0
0.875 0.1875 0
0.9375 0.1875 0
0.875 0.25 0
0.9375 0.25 0
0.9375 0.1875 0
1 0.1875 0
0.9375 0.25 0
1 0.25 0
0 0.25 0
0.0625 0.25 0
0 0.3125 0
0.0625 0.3125 0
0.0625 0.25 0
0.125 0.25 0
0.0625 0.3125 0
0.125 0.3125 0
0.125 0.25 0
0.1875 0.25 0
0.125 0.3125 0
0.1875 0.3125 0
0.875 0.25 0
0.9375 0.25 0
0.875 0.3125 0
0.9375 0.3125 0
0.9375 0.25 0
1 0.25 0
0.9375 0.3125 0
1 0.3125 0
0 0.3125 0
0.0625 0.3125 0
0 0.375 0
0.0625 0.375 0
0.0625 0.3125 0
0.125 0.3125 0
0.0625 0.375 0
0.125 0.375 0
0.125 0.3125 0
0.1875 0.3125 0
0.125 0.375 0
0.1875 0.375 0
0.1875 0.3125 0
0.25 0.3125 0
0.1875 0.375 0
0.25 0.375 0
0.8125 0.3125 0
0.875 0.3125 0
0.8125 0.375 0
0.875 0.375 0
0.875 0.3125 0
0.9375 0.3125 0
0.875 0.375 0
0.9375 0.375 0
0.9375 0.3125 0
1 0.3125 0
0.9375 0.375 0
1 0.375 0
0 0.375 0
0.0625 0.375 0
0 0.4375 0
0.0625 0.4375 0
0.0625 0.375 0
0.125 0.375 0
0.0625 0.4375 0
0.125 0.4375 0
0.125 0.375 0
0.1875 0.375 0
0.125 0.4375 0
0.1875 0.4375 0
0.1875 0.375 0
0.25 0.375 0
0.1875 0.4375 0
0.25 0.4375 0
0.25 0.375 0
0.3125 0.375 0
0.25 0.4375 0
0.3125 0.4375 0
0.75 0.375 0
0.8125 0.375 0
0.75 0.4375 0
0.8125 0.4375 0
0.8125 0.375 0
0.875 0.375 0
0.8125 0.4375 0
0.875 0.4375 0
0.875 0.375 0
0.9375 0.375 0
0.875 0.4375 0
0.9375 0.4375 0
0.9375 0.375 0
1 0.375 0
0.9375 0.4375 0
1 0.4375 0
0 0.4375 0
0.0625 0.4375 0
0 0.5 0
0.0625 0.5 0
0.0625 0.4375 0
0.125 0.4375 0
0.0625 0.5 0
0.125 0.5 0
0.125 0.4375 0
0.1875 0.4375 0
0.125 0.5 0
0.1875 0.5 0
0.1875 0.4375 0
0.25 0.4375 0
0.1875 0.5 0
0.25 0.5 0
0.25 0.4375 0
0.3125 0.4375 0
0.25 0.5 0
0.3125 0.5 0
0.3125 0.4375 0
0.375 0.4375 0
0.3125 0.5 0
0.375 0.5 0
0.375 0.4375 0
0.4375 0.4375 0
0.375 0.5 0
0.4375 0.5 0
0.4375 0.4375 0
0.5 0.4375 0
0.4375 0.5 0
0.5 0.5 0
0.5 0.4375 0
0.5625 0.4375 0
0.5 0.5 0
0.5625 0.5 0
0.5625 0.4375 0
0.625 0.4375 0
0.5625 0.5 0
0.625 0.5 0
0.625 0.4375 0
0.6875 0.4375 0
0.625 0.5 0
0.6875 0.5 0
0.6875 0.4375 0
0.75 0.4375 0
0.6875 0.5 0
0.75 0.5 0
0.75 0.4375 0
0.8125 0.4375 0
0.75 0.5 0
0.8125 0.5 0
0.8125 0.4375 0
0.875 0.4375 0
0.8125 0.5 0
0.875 0.5 0
0.875 0.4375 0
0.9375 0.4375 0
0.875 0.5 0
0.9375 0.5 0
0.9375 0.4375 0
1 0.4375 0
0.9375 0.5 0
1 0.5 0
0 0.5 0
0.0625 0.5 0
0 0.5625 0
0.0625 0.5625 0
0.0625 0.5 0
0.125 0.5 0
0.0625 0.5625 0
0.125 0.5625 0
0.125 0.5 0
0.1875 0.5 0
0.125 0.5625 0
0.1875 0.5625 0
0.1875 0.5 0
0.25 0.5 0
0.1875 0.5625 0
0.25 0.5625 0
0.25 0.5 0
0.3125 0.5 0
0.25 0.5625 0
0.3125 0.5625 0
0.3125 0.5 0
0.375 0.5 0
0.3125 0.5625 0
0.375 0.5625 0
0.375 0.5 0
0.4375 0.5 0
0.375 0.5625 0
0.4375 0.5625 0
0.4375 0.5 0
0.5 0.5 0
0.4375 0.5625 0
0.5 0.5625 0
0.5 0.5 0
0.5625 0.5 0
0.5 0.5625 0
0.5625 0.5625 0
0.5625 0.5 0
0.625 0.5 0
0.5625 0.5625 0
0.625 0.5625 0
0.625 0.5 0
0.6875 0.5 0
0.625 0.5625 0
0.6875 0.5625 0
0.6875 0.5 0
0.75 0.5 0
0.6875 0.5625 0
0.75 0.5625 0
0.75 0.5 0
0.8125 0.5 0
0.75 0.5625 0
0.8125 0.5625 0
0.8125 0.5 0
0.875 0.5 0
0.8125 0.5625 0
0.875 0.5625 0
0.875 0.5 0
0.9375 0.5 0
0.875 0.5625 0
0.9375 0.5625 0
0.9375 0.5 0
1 0.5 0
0.9375 0.5625 0
1 0.5625 0
0 0.5625 0
0.0625 0.5625 0
0 0.625 0
0.0625 0.625 0
0.0625 0.5625 0
0.125 0.5625 0
0.0625 0.625 0
0.125 0.625 0
0.125 0.5625 0
0.1875 0.5625 0
0.125 0.625 0
0.1875 0.625 0
0.1875 0.5625 0
0.25 0.5625 0
0.1875 0.625 0
0.25 0.625 0
0.25 0.5625 0
0.3125 0.5625 0
0.25 0.625 0
0.3125 0.625 0
0.3125 0.5625 0
0.375 0.5625 0
0.3125 0.625 0
0.375 0.625 0
0.375 0.5625 0
0.4375 0.5625 0
0.375 0.625 0
0.4375 0.625 0
0.4375 0.5625 0
0.5 0.5625 0
0.4375 0.625 0
0.5 0.625 0
0.5 0.5625 0
0.5625 0.5625 0
0.5 0.625 0
0.5625 0.625 0
0.5625 0.5625 0
0.625 0.5625 0
0.5625 0.625 0
0.625 0.625 0
0.625 0.5625 0
0.6875 0.5625 0
0.625 0.625 0
0.6875 0.625 0
0.6875 0.5625 0
0.75 0.5625 0
0.6875 0.625 0
0.75 0.625 0
0.75 0.5625 0
0.8125 0.5625 0
0.75 0.625 0
0.8125 0.625 0
0.8125 0.5625 0
0.875 0.5625 0
0.8125 0.625 0
0.875 0.625 0
0.875 0.5625 0
0.9375 0.5625 0
0.875 0.625 0
0.9375 0.625 0
0.9375 0.5625 0
1 0.5625 0
0.9375 0.625 0
1 0.625 0
0 0.625 0
0.0625 0.625 0
0 0.6875 0
0.0625 0.6875 0
0.0625 0.625 0
0.125 0.625 0
0.0625 0.6875 0
0.125 0.6875 0
0.125 0.625 0
0.1875 0.625 0
0.125 0.6875 0
0.1875 0.6875 0
0.1875 0.625 0
0.25 0.625 0
0.1875 0.6875 0
0.25 0.6875 0
0.25 0.625 0
0.3125 0.625 0
0.25 0.6875 0
0.3125 0.6875 0
0.3125 0.625 0
0.375 0.625 0
0.3125 0.6875 0
0.375 0.6875 0
0.375 0.625 0
0.4375 0.625 0
0.375 0.6875 0
0.4375 0.6875 0
0.4375 0.625 0
0.5 0.625 0
0.4375 0.6875 0
0.5 0.6875 0
0.5 0.625 0
0.5625 0.625 0
0.5 0.6875 0
0.5625 0.6875 0
0.5625 0.625 0
0.625 0.625 0
0.5625 0.6875 0
0.625 0.6875 0
0.625 0.625 0
0.6875 0.625 0
0.625 0.6875 0
0.6875 0.6875 0
0.6875 0.625 0
0.75 0.625 0
0.6875 0.6875 0
0.75 0.6875 0
0.75 0.625 0
0.8125 0.625 0
0.75 0.6875 0
0.8125 0.6875 0
0.8125 0.625 0
0.875 0.625 0
0.8125 0.6875 0
0.875 0.6875 0
0.875 0.625 0
0.9375 0.625 0
0.875 0.6875 0
0.9375 0.6875 0
0.9375 0.625 0
1 0.625 0
0.9375 0.6875 0
1 0.6875 0
0 0.6875 0
0.0625 0.6875 0
0 0.75 0
0.0625 0.75 0
0.0625 0.6875 0
0.125 0.6875 0
0.0625 0.75 0
0.125 0.75 0
0.125 0.6875 0
0.1875 0.6875 0
0.125 0.75 0
0.1875 0.75 0
0.1875 0.6875 0
0.25 0.6875 0
0.1875 0.75 0
0.25 0.75 0
0.25 0.6875 0
0.3125 0.6875 0
0.25 0.75 0
0.3125 0.75 0
0.3125 0.6875 0
0.375 0.6875 0
0.3125 0.75 0
0.375 0.75 0
0.375 0.6875 0
0.4375 0.6875 0
0.375 0.75 0
0.4375 0.75 0
0.4375 0.6875 0
0.5 0.6875 0
0.4375 0.75 0
0.5 0.75 0
0.5 0.6875 0
0.5625 0.6875 0
0.5 0.75 0
0.5625 0.75 0
0.5625 0.6875 0
0.625 0.6875 0
0.5625 0.75 0
0.625 0.75 0
0.625 0.6875 0
0.6875 0.6875 0
0.625 0.75 0
0.6875 0.75 0
0.6875 0.6875 0
0.75 0.6875 0
0.6875 0.75 0
0.75 0.75 0
0.75 0.6875 0
0.8125 0.6875 0
0.75 0.75 0
0.8125 0.75 0
0.8125 0.6875 0
0.875 0.6875 0
0.8125 0.75 0
0.875 0.75 0
0.875 0.6875 0
0.9375 0.6875 0
0.875 0.75 0
0.9375 0.75 0
0.9375 0.6875 0
1 0.6875 0
0.9375 0.75 0
1 0.75 0
0 0.75 0
0.0625 0.75 0
0 0.8125 0
0.0625 0.8125 0
0.0625 0.75 0
0.125 0.75 0
0.0625 0.8125 0
0.125 0.8125 0
0.125 0.75 0
0.1875 0.75 0
0.125 0.8125 0
0.1875 0.8125 0
0.1875 0.75 0
0.25 0.75 0
0.1875 0.8125 0
0.25 0.8125 0
0.25 0.75 0
0.3125 0.75 0
0.25 0.8125 0
0.3125 0.8125 0
0.3125 0.75 0
0.375 0.75 0
0.3125 0.8125 0
0.375 0.8125 0
0.375 0.75 0
0.4375 0.75 0
0.375 0.8125 0
0.4375 0.8125 0
0.4375 0.75 0
0.5 0.75 0
0.4375 0.8125 0
0.5 0.8125 0
0.5 0.75 0
0.5625 0.75 0
0.5 0.8125 0
0.5625 0.8125 0
0.5625 0.75 0
0.625 0.75 0
0.5625 0.8125 0
0.625 0.8125 0
0.625 0.75 0
0.6875 0.75 0
0.625 0.8125 0
0.6875 0.8125 0
0.6875 0.75 0
0.75 0.75 0
0.6875 0.8125 0
0.75 0.8125 0
0.75 0.75 0
0.8125 0.75 0
0.75 0.8125 0
0.8125 0.8125 0
0.8125 0.75 0
0.875 0.75 0
0.8125 0.8125 0
0.875 0.8125 0
0.875 0.75 0
0.9375 0.75 0
0.875 0.8125 0
0.9375 0.8125 0
0.9375 0.75 0
1 0.75 0
0.9375 0.8125 0
1 0.8125 0
0 0.8125 0
0.0625 0.8125 0
0 0.875 0
0.0625 0.875 0
0.0625 0.8125 0
0.125 0.8125 0
0.0625 0.875 0
0.125 0.875 0
0.125 0.8125 0
0.1875 0.8125 0
0.125 0.875 0
0.1875 0.875 0
0.1875 0.8125 0
0.25 0.8125 0
0.1875 0.875 0
0.25 0.875 0
0.25 0.8125 0
0.3125 0.8125 0
0.25 0.875 0
0.3125 0.875 0
0.3125 0.8125 0
0.375 0.8125 0
0.3125 0.875 0
0.375 0.875 0
0.375 0.8125 0
0.4375 0.8125 0
0.375 0.875 0
0.4375 0.875 0
0.4375 0.8125 0
0.5 0.8125 0
0.4375 0.875 0
0.5 0.875 0
0.5 0.8125 0
0.5625 0.8125 0
0.5 0.875 0
0.5625 0.875 0
0.5625 0.8125 0
0.625 0.8125 0
0.5625 0.875 0
0.625 0.875 0
0.625 0.8125 0
0.6875 0.8125 0
0.625 0.875 0
0.6875 0.875 0
0.6875 0.8125 0
0.75 0.8125 0
0.6875 0.875 0
0.75 0.875 0
0.75 0.8125 0
0.8125 0.8125 0
0.75 0.875 0
0.8125 0.875 0
0.8125 0.8125 0
0.875 0.8125 0
0.8125 0.875 0
0.875 0.875 0
0.875 0.8125 0
0.9375 0.8125 0
0.875 0.875 0
0.9375 0.875 0
0.9375 0.8125 0
1 0.8125 0
0.9375 0.875 0
1 0.875 0
0 0.875 0
0.0625 0.875 0
0 0.9375 0
0.0625 0.9375 0
0.0625 0.875 0
0.125 0.875 0
0.0625 0.9375 0
0.125 0.9375 0
0.125 0.875 0
0.1875 0.875 0
0.125 0.9375 0
0.1875 0.9375 0
0.1875 0.875 0
0.25 0.875 0
0.1875 0.9375 0
0.25 0.9375 0
0.25 0.875 0
0.3125 0.875 0
0.25 0.9375 0
0.3125 0.9375 0
0.3125 0.875 0
0.375 0.875 0
0.3125 0.9375 0
0.375 0.9375 0
0.375 0.875 0
0.4375 0.875 0
0.375 0.9375 0
0.4375 0.9375 0
0.4375 0.875 0
0.5 0.875 0
0.4375 0.9375 0
0.5 0.9375 0
0.5 0.875 0
0.5625 0.875 0
0.5 0.9375 0
0.5625 0.9375 0
0.5625 0.875 0
0.625 0.875 0
0.5625 0.9375 0
0.625 0.9375 0
0.625 0.875 0
0.6875 0.875 0
0.625 0.9375 0
0.6875 0.9375 0
0.6875 0.875 0
0.75 0.875 0
0.6875 0.9375 0
0.75 0.9375 0
0.75 0.875 0
0.8125 0.875 0
0.75 0.9375 0
0.8125 0.9375 0
0.8125 0.875 0
0.875 0.875 0
0.8125 0.9375 0
0.875 0.9375 0
0.875 0.875 0
0.9375 0.875 0
0.875 0.9375 0
0.9375 0.9375 0
0.9375 0.875 0
1 0.875 0
0.9375 0.9375 0
1 0.9375 0
0 0.9375 0
0.0625 0.9375 0
0 1 0
0.0625 1 0
0.0625 0.9375 0
0.125 0.9375 0
0.0625 1 0
0.125 1 0
0.125 0.9375 0
0.1875 0.9375 0
0.125 1 0
0.1875 1 0
0.1875 0.9375 0
0.25 0.9375 0
0.1875 1 0
0.25 1 0
0.25 0.9375 0
0.3125 0.9375 0
0.25 1 0
0.3125 1 0
0.3125 0.9375 0
0.375 0.9375 0
[...]
POINT_DATA 2644
SCALARS solution double 1
LOOKUP_TABLE default
0 0 0 0.0114469 0 0 0.0114469 0.0248213 0 0 0.0248213 0.0428001 0 0 0.0449052 0.0259638 0 0 0.0259638 0.0119514 0 0 0.0119514 0 0 0.0114469 0 0.0210787 0.0114469 0.0248213 0.0210787 0.0453394 0.0248213 0.0428001 0.0453394 0.0770259 0.0259638 0.0119514 0.0473207 0.0219672 0.0119514 0 0.0219672 0 0 0.0210787 0 0.0276905 0.0210787 0.0453394 0.0276905 0.0588491 0.0453394 0.0770259 0.0588491 0.0977821 0.0473207 0.0219672 0.0612123 0.0287752 0.0219672 0 0.0287752 0 0 0.0276905 0 0.0309667 0.0276905 0.0588491 0.0309667 0.0648946 0.0588491 0.0977821 0.0648946 0.105104 0.0612123 0.0287752 0.0672208 0.0320647 0.0287752 0 0.0320647 0 0 0.0309667 0 0.0313435 0.0309667 0.0648946 0.0313435 0.0647696 0.0648946 0.105104 0.0647696 0.102321 0.0672208 0.0320647 0.0667948 0.0323274 0.0320647 0 0.0323274 0 0 0.0313435 0 0.0296372 0.0313435 0.0647696 0.0296372 0.0604813 0.0647696 0.102321 0.0604813 0.0935147 0.102321 0.145743 0.0935147 0.129098 0.105484 0.0667948 0.0959286 0.0621042 0.0667948 0.0323274 0.0621042 0.0304467 0.0323274 0 0.0304467 0 0 0.0296372 0 0.0266911 0.0296372 0.0604813 0.0266911 0.0539106 0.0604813 0.0935147 0.0539106 0.0819379 0.0935147 0.129098 0.0819379 0.110488 0.129098 0.166291 0.110488 0.138306 0.132218 0.0959286 0.112637 0.0837031 0.0959286 0.0621042 0.0837031 0.05514 0.0621042 0.0304467 0.05514 0.0273178 0.0304467 0 0.0273178 0 0 0.0266911 0 0.0231773 0.0266911 0.0539106 0.0231773 0.0464408 0.0539106 0.0819379 0.0464408 0.0696775 0.0819379 0.110488 0.0696775 0.0923674 0.110488 0.138306 0.0923674 0.113398 0.138306 0.162849 0.113398 0.131009 0.162849 0.180383 0.131009 0.143034 0.180383 0.187193 0.143034 0.147556 0.187193 0.181541 0.147556 0.143737 0.181541 0.164811 0.143737 0.132239 0.164811 0.140579 0.132239 0.114884 0.140579 0.112637 0.114884 0.0938389 0.112637 0.0837031 0.0938389 0.070929 0.0837031 0.05514 0.070929 0.047337 0.05514 0.0273178 0.047337 0.023642 0.0273178 0 0.023642 0 0 0.0231773 0 0.0195445 0.0231773 0.0464408 0.0195445 0.0389299 0.0464408 0.0696775 0.0389299 0.0578618 0.0696775 0.0923674 0.0578618 0.0757885 0.0923674 0.113398 0.0757885 0.0918268 0.113398 0.131009 0.0918268 0.10479 0.131009 0.143034 0.10479 0.11338 0.143034 0.147556 0.11338 0.116539 0.147556 0.143737 0.116539 0.113823 0.143737 0.132239 0.113823 0.105578 0.132239 0.114884 0.105578 0.0928045 0.114884 0.0938389 0.0928045 0.0767858 0.0938389 0.070929 0.0767858 0.0587323 0.070929 0.047337 0.0587323 0.039566 0.047337 0.023642 0.039566 0.0198785 0.023642 0 0.0198785 0 0 0.0195445 0 0.0160478 0.0195445 0.0389299 0.0160478 0.0318287 0.0389299 0.0578618 0.0318287 0.046993 0.0578618 0.0757885 0.046993 0.0610426 0.0757885 0.0918268 0.0610426 0.0733062 0.0918268 0.10479 0.0733062 0.0829827 0.10479 0.11338 0.0829827 0.0892671 0.11338 0.116539 0.0892671 0.0915405 0.116539 0.113823 0.0915405 0.0895508 0.113823 0.105578 0.0895508 0.0834946 0.105578 0.0928045 0.0834946 0.0739523 0.0928045 0.0767858 0.0739523 0.0617145 0.0767858 0.0587323 0.0617145 0.0475901 0.0587323 0.039566 0.0475901 0.0322713 0.039566 0.0198785 0.0322713 0.0162823 0.0198785 0 0.0162823 0 0 0.0160478 0 0.0128037 0.0160478 0.0318287 0.0128037 0.0253184 0.0318287 0.046993 0.0253184 0.0372083 0.046993 0.0610426 0.0372083 0.0480584 0.0610426 0.0733062 0.0480584 0.0573702 0.0733062 0.0829827 0.0573702 0.0645984 0.0829827 0.0892671 0.0645984 0.069229 0.0892671 0.0915405 0.069229 0.070884 0.0915405 0.0895508 0.070884 0.0694128 0.0895508 0.0834946 0.0694128 0.0649325 0.0834946 0.0739523 0.0649325 0.0577968 0.0739523 0.0617145 0.0577968 0.0485077 0.0617145 0.0475901 0.0485077 0.0376125 0.0475901 0.0322713 0.0376125 0.0256209 0.0322713 0.0162823 0.0256209 0.0129651 0.0162823 0 0.0129651 0 0 0.0128037 0 0.00984047 0.0128037 0.0253184 0.00984047 0.0194187 0.0253184 0.0372083 0.0194187 0.0284482 0.0372083 0.0480584 0.0284482 0.0366033 0.0480584 0.0573702 0.0366033 0.0435224 0.0573702 0.0645984 0.0435224 0.0488343 0.0645984 0.069229 0.0488343 0.0522061 0.069229 0.070884 0.0522061 0.0534005 0.070884 0.0694128 0.0534005 0.0523248 0.0694128 0.0649325 0.0523248 0.0490513 0.0649325 0.0577968 0.0490513 0.0438013 0.0577968 0.0485077 0.0438013 0.0368996 0.0485077 0.0376125 0.0368996 0.028717 0.0376125 0.0256209 0.028717 0.0196212 0.0256209 0.0129651 0.0196212 0.00994895 0.0129651 0 0.00994895 0 0 0.00984047 0 0.00713514 0.00984047 0.0194187 0.00713514 0.0140608 0.0194187 0.0284482 0.0140608 0.020556 0.0284482 0.0366033 0.020556 0.026382 0.0366033 0.0435224 0.026382 0.0312877 0.0435224 0.0488343 0.0312877 0.0350267 0.0488343 0.0522061 0.0350267 0.0373855 0.0522061 0.0534005 0.0373855 0.0382158 0.0534005 0.0523248 0.0382158 0.0374604 0.0523248 0.0490513 0.0374604 0.0351639 0.0490513 0.0438013 0.0351639 0.031465 0.0438013 0.0368996 0.031465 0.0265713 0.0368996 0.028717 0.0265713 0.0207286 0.028717 0.0196212 0.0207286 0.0141915 0.0196212 0.00994895 0.0141915 0.00720534 0.00994895 0 0.00720534 0 0 0.00713514 0 0.00463714 0.00713514 0.0140608 0.00463714 0.00913025 0.0140608 0.020556 0.00913025 0.0133303 0.020556 0.026382 0.0133303 0.0170815 0.026382 0.0312877 0.0170815 0.0202251 0.0312877 0.0350267 0.0202251 0.0226102 0.0350267 0.0373855 0.0226102 0.0241091 0.0373855 0.0382158 0.0241091 0.0246345 0.0382158 0.0374604 0.0246345 0.024153 0.0374604 0.0351639 0.024153 0.0226908 0.0351639 0.031465 0.0226908 0.0203295 0.031465 0.0265713 0.0203295 0.0171934 0.0265713 0.0207286 0.0171934 0.0134327 0.0207286 0.0141915 0.0134327 0.00920795 0.0141915 0.00720534 0.00920795 0.00467895 0.00720534 0 0.00467895 0 0 0.00463714 0 0.00228223 0.00463714 0.00913025 0.00228223 0.00449144 0.00913025 0.0133303 0.00449144 0.00655286 0.0133303 0.0170815 0.00655286 0.00838962 0.0170815 0.0202251 0.00838962 0.0099249 0.0202251 0.0226102 0.0099249 0.0110868 0.0226102 0.0241091 0.0110868 0.0118155 0.0241091 0.0246345 0.0118155 0.0120702 0.0246345 0.024153 0.0120702 0.0118357 0.024153 0.0226908 0.0118357 0.0111241 0.0226908 0.0203295 0.0111241 0.00997323 0.0203295 0.0171934 0.00997323 0.00844151 0.0171934 0.0134327 0.00844151 0.00660042 0.0134327 0.00920795 0.00660042 0.00452759 0.00920795 0.00467895 0.00452759 0.00230171 0.00467895 0 0.00230171 0 0 0.00228223 0 0 0.00228223 0.00449144 0 0 0.00449144 0.00655286 0 0 0.00655286 0.00838962 0 0 0.00838962 0.0099249 0 0 0.0099249 0.0110868 0 0 0.0110868 0.0118155 0 0 0.0118155 0.0120702 0 0 0.0120702 0.0118357 0 0 0.0118357 0.0111241 0 0 0.0111241 0.00997323 0 0 0.00997323 0.00844151 0 0 0.00844151 0.00660042 0 0 0.00660042 0.00452759 0 0 0.00452759 0.00230171 0 0 0.00230171 0 0 0 0 0 0.0361865 0.0465355 0 0 0.0465355 0.060316 0.0361865 0.0465355 0.0700238 0.0897122 0.0465355 0.060316 0.0897122 0.115827 0 0 0.060316 0.078984 0 0 0.078984 0.104461 0.060316 0.078984 0.115827 0.15122 0 0 0.0841015 0.0640274 0.0841015 0.0640274 0.160949 0.122848 0 0 0.0640274 0.0492408 0 0 0.0492408 0.0381759 0.0640274 0.0492408 0.122848 0.0948372 0.0492408 0.0381759 0.0948372 0.0738066 0 0 0.0381759 0.0297133 0 0 0.0297133 0.0230771 0.0381759 0.0297133 0.0738066 0.0576386 0.0297133 0.0230771 0.0576386 0.0449052 0.0428001 0.0548242 0.0613953 0.0783104 0.0548242 0.0700238 0.0783104 0.0994725 0.0613953 0.0783104 0.0770259 0.0976311 0.0783104 0.0994725 0.0976311 0.123075 0.0700238 0.0897122 0.0994725 0.126613 0.0897122 0.115827 0.126613 0.162277 0.0994725 0.126613 0.123075 0.155199 0.126613 0.162277 0.155199 0.196691 0.115827 0.15122 0.162277 0.210332 0.162277 0.210332 0.196691 0.251595 0.210332 0.27677 0.251595 0.326335 0.160949 0.122848 0.22353 0.171809 0.22353 0.171809 0.266536 0.207637 0.122848 0.0948372 0.171809 0.133616 0.0948372 0.0738066 0.133616 0.104685 0.171809 0.133616 0.207637 0.163365 0.133616 0.104685 0.163365 0.12924 0.0738066 0.0576386 0.104685 0.0822225 0.0576386 0.0449052 0.0822225 0.0643432 0.104685 0.0822225 0.12924 0.102317 0.0822225 0.0643432 0.102317 0.0805753 0.0770259 0.0976311 0.0891815 0.112215 0.0976311 0.123075 0.112215 0.14013 0.0891815 0.112215 0.0977821 0.121985 0.112215 0.14013 0.121985 0.150707 0.123075 0.155199 0.14013 0.17463 0.155199 0.196691 0.17463 0.21806 0.14013 0.17463 0.150707 0.185287 0.17463 0.21806 0.185287 0.227423 0.196691 0.251595 0.21806 0.273737 0.251595 0.326335 0.273737 0.346464 0.21806 0.273737 0.227423 0.279207 0.273737 0.346464 0.279207 0.343006 0.266536 0.207637 0.288528 0.229265 0.366245 0.288528 0.359555 0.292466 0.288528 0.229265 0.292466 0.237958 0.207637 0.163365 0.229265 0.183209 0.163365 0.12924 0.183209 0.146743 0.229265 0.183209 0.237958 0.193636 0.183209 0.146743 0.193636 0.157313 0.12924 0.102317 0.146743 0.117323 0.102317 0.0805753 0.117323 0.0931176 0.146743 0.117323 0.157313 0.127194 0.117323 0.0931176 0.127194 0.101851 0.150707 0.185287 0.155486 0.188456 0.185287 0.227423 0.188456 0.227197 0.155486 0.188456 0.155504 0.185848 0.188456 0.227197 0.185848 0.220214 0.227423 0.279207 0.227197 0.272631 0.279207 0.343006 0.272631 0.325203 0.227197 0.272631 0.220214 0.258705 0.272631 0.325203 0.258705 0.300719 0.343006 0.420828 0.325203 0.383881 0.325203 0.383881 0.300719 0.344285 0.383881 0.444171 0.344285 0.38516 0.444171 0.494888 0.38516 0.41637 0.45748 0.397938 0.393498 0.354041 0.397938 0.338083 0.354041 0.310467 0.359555 0.292466 0.338083 0.283758 0.292466 0.237958 0.283758 0.236516 0.338083 0.283758 0.310467 0.267688 0.283758 0.236516 0.267688 0.228126 0.237958 0.193636 0.236516 0.196133 0.193636 0.157313 0.196133 0.161741 0.236516 0.196133 0.228126 0.192623 0.196133 0.161741 0.192623 0.161193 0.157313 0.127194 0.161741 0.132339 0.127194 0.101851 0.132339 0.106977 0.161741 0.132339 0.161193 0.133464 0.132339 0.106977 0.133464 0.108919 0.155504 0.185848 0.151901 0.179173 0.185848 0.220214 0.179173 0.208998 0.151901 0.179173 0.145743 0.169884 0.179173 0.208998 0.169884 0.195471 0.220214 0.258705 0.208998 0.241033 0.258705 0.300719 0.241033 0.274299 0.208998 0.241033 0.195471 0.221969 0.241033 0.274299 0.221969 0.248379 0.300719 0.344285 0.274299 0.30685 0.344285 0.38516 0.30685 0.33552 0.274299 0.30685 0.248379 0.273099 0.30685 0.33552 0.273099 0.293923 0.38516 0.41637 0.33552 0.356144 0.41637 0.429893 0.356144 0.364717 0.33552 0.356144 0.293923 0.308336 0.356144 0.364717 0.308336 0.314172 0.429893 0.42134 0.364717 0.359271 0.42134 0.393498 0.359271 0.341044 0.364717 0.359271 0.314172 0.310433 0.359271 0.341044 0.310433 0.297745 0.393498 0.354041 0.341044 0.313734 0.354041 0.310467 0.313734 0.281617 0.341044 0.313734 0.297745 0.278063 0.313734 0.281617 0.278063 0.253895 0.310467 0.267688 0.281617 0.248147 0.267688 0.228126 0.248147 0.215546 0.281617 0.248147 0.253895 0.22756 0.248147 0.215546 0.22756 0.20081 0.228126 0.192623 0.215546 0.184984 0.192623 0.161193 0.184984 0.156922 0.215546 0.184984 0.20081 0.174775 0.184984 0.156922 0.174775 0.150076 0.195471 0.221969 0.180951 0.202889 0.221969 0.248379 0.202889 0.224041 0.180951 0.202889 0.166291 0.184535 0.202889 0.224041 0.184535 0.201668 0.248379 0.273099 0.224041 0.243178 0.273099 0.293923 0.243178 0.25879 0.224041 0.243178 0.201668 0.216768 0.243178 0.25879 0.216768 0.228798 0.293923 0.308336 0.25879 0.269313 0.308336 0.314172 0.269313 0.273495 0.25879 0.269313 0.228798 0.236753 0.269313 0.273495 0.236753 0.239869 0.314172 0.310433 0.273495 0.270785 0.310433 0.297745 0.270785 0.261527 0.273495 0.270785 0.239869 0.237822 0.270785 0.261527 0.237822 0.230812 0.297745 0.278063 0.261527 0.246836 0.278063 0.253895 0.246836 0.228238 0.261527 0.246836 0.230812 0.219514 0.246836 0.228238 0.219514 0.204893 0.253895 0.22756 0.228238 0.207281 0.22756 0.20081 0.207281 0.185273 0.228238 0.207281 0.204893 0.187994 0.207281 0.185273 0.187994 0.169771 0 0 0.0219806 0.0282393 0 0 0.0282393 0.0361865 0.0219806 0.0282393 0.0428001 0.0548242 0.0282393 0.0361865 0.0548242 0.0700238 0.0449052 0.0345735 0.0643432 0.0497278 0.0345735 0.0259638 0.0497278 0.0374427 0.0643432 0.0497278 0.0805753 0.0625871 0.0497278 0.0374427 0.0625871 0.0473207 0.0805753 0.0625871 0.0931176 0.0727748 0.0625871 0.0473207 0.0727748 0.0552753 0.0931176 0.0727748 0.101851 0.0801553 0.0727748 0.0552753 0.0801553 0.0612123 0.0977821 0.121985 0.102955 0.127293 0.121985 0.150707 0.127293 0.155486 0.102955 0.127293 0.105104 0.128763 0.127293 0.155486 0.128763 0.155504 0.101851 0.0801553 0.106977 0.0848167 0.0801553 0.0612123 0.0848167 0.0651387 0.106977 0.0848167 0.108919 0.0870128 0.0848167 0.0651387 0.0870128 0.0672208 0.105104 0.128763 0.104715 0.127155 0.128763 0.155504 0.127155 0.151901 0.104715 0.127155 0.102321 0.123228 0.127155 0.151901 0.123228 0.145743 0.161193 0.133464 0.156922 0.131401 0.133464 0.108919 0.131401 0.108229 0.156922 0.131401 0.150076 0.12697 0.131401 0.108229 0.12697 0.105484 0.108919 0.0870128 0.108229 0.0871034 0.0870128 0.0672208 0.0871034 0.0676784 0.108229 0.0871034 0.105484 0.0854921 0.0871034 0.0676784 0.0854921 0.0667948 0.145743 0.169884 0.137913 0.159108 0.169884 0.195471 0.159108 0.180951 0.137913 0.159108 0.129098 0.147646 0.159108 0.180951 0.147646 0.166291 0.20081 0.174775 0.185273 0.163172 0.174775 0.150076 0.163172 0.1416 0.185273 0.163172 0.169771 0.150992 0.163172 0.1416 0.150992 0.132218 0.150076 0.12697 0.1416 0.120904 0.12697 0.105484 0.120904 0.101228 0.1416 0.120904 0.132218 0.113799 0.120904 0.101228 0.113799 0.0959286 0.166291 0.184535 0.151982 0.167261 0.184535 0.201668 0.167261 0.181305 0.151982 0.167261 0.138306 0.151207 0.167261 0.181305 0.151207 0.162849 0.201668 0.216768 0.181305 0.193432 0.216768 0.228798 0.193432 0.202921 0.181305 0.193432 0.162849 0.172744 0.193432 0.202921 0.172744 0.180383 0.228798 0.236753 0.202921 0.209106 0.236753 0.239869 0.209106 0.211501 0.202921 0.209106 0.180383 0.185298 0.209106 0.211501 0.185298 0.187193 0.239869 0.237822 0.211501 0.209903 0.237822 0.230812 0.209903 0.204435 0.211501 0.209903 0.187193 0.185903 0.209903 0.204435 0.185903 0.181541 0.230812 0.219514 0.204435 0.195527 0.219514 0.204893 0.195527 0.183808 0.204435 0.195527 0.181541 0.174363 0.195527 0.183808 0.174363 0.164811 0.204893 0.187994 0.183808 0.169997 0.187994 0.169771 0.169997 0.154788 0.183808 0.169997 0.164811 0.153381 0.169997 0.154788 0.153381 0.140579 0.169771 0.150992 0.154788 0.138781 0.150992 0.132218 0.138781 0.122445 0.154788 0.138781 0.140579 0.126877 0.138781 0.122445 0.126877 0.112637 0.078984 0.0907488 0.116362 0.133666 0.0907488 0.104461 0.133666 0.153937 0.116362 0.133666 0.15122 0.173618 0.133666 0.153937 0.173618 0.199995 0 0 0.0527634 0.0607303 0 0 0.0607303 0.06979 0.0527634 0.0607303 0.104461 0.120346 0.0607303 0.06979 0.120346 0.13856 0 0 0.06979 0.079831 0 0 0.079831 0.0905061 0.06979 0.079831 0.13856 0.158969 0.079831 0.0905061 0.158969 0.180998 0.104461 0.120346 0.153937 0.177616 0.120346 0.13856 0.177616 0.205063 0.153937 0.177616 0.199995 0.231077 0.177616 0.205063 0.231077 0.267617 0.13856 0.158969 0.205063 0.236365 0.158969 0.180998 0.236365 0.271011 0.205063 0.236365 0.267617 0.310233 0.236365 0.271011 0.310233 0.359028 0 0 0.0905061 0.101126 0 0 0.101126 0.110607 0.0905061 0.101126 0.180998 0.203336 0.101126 0.110607 0.203336 0.22372 0 0 0.110607 0.117594 0 0 0.117594 0.120818 0.110607 0.117594 0.22372 0.239055 0.117594 0.120818 0.239055 0.246237 0.180998 0.203336 0.271011 0.307341 0.203336 0.22372 0.307341 0.341857 0.271011 0.307341 0.359028 0.412758 0.307341 0.341857 0.412758 0.467228 0.22372 0.239055 0.341857 0.368913 0.239055 0.246237 0.368913 0.381977 0.341857 0.368913 0.467228 0.513191 0.368913 0.381977 0.513191 0.536786 0 0 0.120818 0.119609 0 0 0.119609 0.114222 0.120818 0.119609 0.246237 0.243541 0.119609 0.114222 0.243541 0.231625 0 0 0.114222 0.105709 0 0 0.105709 0.0954482 0.114222 0.105709 0.231625 0.213135 0.105709 0.0954482 0.213135 0.191334 0.246237 0.243541 0.381977 0.377059 0.243541 0.231625 0.377059 0.355693 0.381977 0.377059 0.536786 0.527848 0.377059 0.355693 0.527848 0.490362 0.231625 0.213135 0.355693 0.323753 0.213135 0.191334 0.323753 0.287646 0.355693 0.323753 0.490362 0.43816 0.323753 0.287646 0.43816 0.383224 0 0 0.0954482 0.0846818 0 0 0.0846818 0.0742827 0.0954482 0.0846818 0.191334 0.16893 0.0846818 0.0742827 0.16893 0.147658 0 0 0.0742827 0.0647428 0 0 0.0647428 0.0562659 0.0742827 0.0647428 0.147658 0.128393 0.0647428 0.0562659 0.128393 0.111429 0.191334 0.16893 0.287646 0.2519 0.16893 0.147658 0.2519 0.218932 0.287646 0.2519 0.383224 0.33185 0.2519 0.218932 0.33185 0.286349 0.147658 0.128393 0.218932 0.18969 0.128393 0.111429 0.18969 0.164303 0.218932 0.18969 0.286349 0.247072 0.18969 0.164303 0.247072 0.213564 0 0 0.0562659 0.0488765 0 0 0.0488765 0.0425033 0.0562659 0.0488765 0.111429 0.0967306 0.0488765 0.0425033 0.0967306 0.0841015 0.111429 0.0967306 0.164303 0.142507 0.0967306 0.0841015 0.142507 0.123884 0.164303 0.142507 0.213564 0.185106 0.142507 0.123884 0.185106 0.160949 0.15122 0.173618 0.182753 0.20961 0.173618 0.199995 0.20961 0.241356 0.182753 0.20961 0.210332 0.240739 0.20961 0.241356 0.240739 0.27677 0.199995 0.231077 0.241356 0.279061 0.231077 0.267617 0.279061 0.32402 0.241356 0.279061 0.27677 0.319825 0.279061 0.32402 0.319825 0.371697 0.267617 0.310233 0.32402 0.377719 0.310233 0.359028 0.377719 0.441645 0.32402 0.377719 0.371697 0.434895 0.377719 0.441645 0.434895 0.51287 0.27677 0.319825 0.305291 0.351863 0.319825 0.371697 0.351863 0.408204 0.305291 0.351863 0.326335 0.374291 0.351863 0.408204 0.374291 0.432018 0.371697 0.434895 0.408204 0.477517 0.434895 0.51287 0.477517 0.564827 0.408204 0.477517 0.432018 0.502683 0.477517 0.564827 0.502683 0.591317 0.359028 0.412758 0.441645 0.516552 0.412758 0.467228 0.516552 0.600084 0.441645 0.516552 0.51287 0.610336 0.516552 0.600084 0.610336 0.732749 0.467228 0.513191 0.600084 0.680332 0.513191 0.536786 0.680332 0.727278 0.600084 0.680332 0.732749 0.879162 0.680332 0.727278 0.879162 0.996128 0.51287 0.610336 0.564827 0.678798 0.610336 0.732749 0.678798 0.836481 0.564827 0.678798 0.591317 0.70666 0.678798 0.836481 0.70666 0.866091 0.732749 0.879162 0.836481 1.07849 0.879162 0.996128 1.07849 1.52817 0.836481 1.07849 0.866091 1.11176 1.07849 1.52817 1.11176 1.5779 0.536786 0.527848 0.727278 0.709174 0.527848 0.490362 0.709174 0.639139 0.727278 0.709174 0.996128 0.947965 0.709174 0.639139 0.947965 0.798838 0.490362 0.43816 0.639139 0.554227 0.43816 0.383224 0.554227 0.474593 0.639139 0.554227 0.798838 0.662783 0.554227 0.474593 0.662783 0.554602 0.996128 0.947965 1.52817 1.3022 0.947965 0.798838 1.3022 0.931232 1.52817 1.3022 1.5779 1.36879 1.3022 0.931232 1.36879 0.966106 0.798838 0.662783 0.931232 0.7432 0.662783 0.554602 0.7432 0.612794 0.931232 0.7432 0.966106 0.772847 0.7432 0.612794 0.772847 0.640318 0.383224 0.33185 0.474593 0.40563 0.33185 0.286349 0.40563 0.347424 0.474593 0.40563 0.554602 0.468481 0.40563 0.347424 0.468481 0.399056 0.286349 0.247072 0.347424 0.298648 0.247072 0.213564 0.298648 0.257774 0.347424 0.298648 0.399056 0.342352 0.298648 0.257774 0.342352 0.295504 0.554602 0.468481 0.612794 0.514886 0.468481 0.399056 0.514886 0.438149 0.612794 0.514886 0.640318 0.540861 0.514886 0.438149 0.540861 0.462692 0.399056 0.342352 0.438149 0.376327 0.342352 0.295504 0.376327 0.32556 0.438149 0.376327 0.462692 0.399449 0.376327 0.32556 0.399449 0.347254 0.213564 0.185106 0.257774 0.223419 0.185106 0.160949 0.223419 0.194414 0.257774 0.223419 0.295504 0.256415 0.223419 0.194414 0.256415 0.22353 0.295504 0.256415 0.32556 0.283278 0.256415 0.22353 0.283278 0.247668 0.32556 0.283278 0.347254 0.303543 0.283278 0.247668 0.303543 0.266536 0.326335 0.374291 0.33985 0.38713 0.374291 0.432018 0.38713 0.443179 0.33985 0.38713 0.346464 0.391306 0.38713 0.443179 0.391306 0.443299 0.432018 0.502683 0.443179 0.510432 0.502683 0.591317 0.510432 0.592321 0.443179 0.510432 0.443299 0.503784 0.510432 0.592321 0.503784 0.574138 0.346464 0.391306 0.347116 0.388377 0.391306 0.443299 0.388377 0.434942 0.347116 0.388377 0.343006 0.380123 0.388377 0.434942 0.380123 0.420828 0.443299 0.503784 0.434942 0.487195 0.503784 0.574138 0.487195 0.544988 0.434942 0.487195 0.420828 0.464864 0.487195 0.544988 0.464864 0.511341