# vtk DataFile Version 3.0
#This file was generated by the deal.II library on 2020/5/26 at 18:42:18
ASCII
DATASET UNSTRUCTURED_GRID

POINTS 65536 double
0 0 0
0.0078125 0 0
0 0.0078125 0
0.0078125 0.0078125 0
0.0078125 0 0
0.015625 0 0
0.0078125 0.0078125 0
0.015625 0.0078125 0
0 0.0078125 0
0.0078125 0.0078125 0
0 0.015625 0
0.0078125 0.015625 0
0.0078125 0.0078125 0
0.015625 0.0078125 0
0.0078125 0.015625 0
0.015625 0.015625 0
0.015625 0 0
0.0234375 0 0
0.015625 0.0078125 0
0.0234375 0.0078125 0
0.0234375 0 0
0.03125 0 0
0.0234375 0.0078125 0
0.03125 0.0078125 0
0.015625 0.0078125 0
0.0234375 0.0078125 0
0.015625 0.015625 0
0.0234375 0.015625 0
0.0234375 0.0078125 0
0.03125 0.0078125 0
0.0234375 0.015625 0
0.03125 0.015625 0
0 0.015625 0
0.0078125 0.015625 0
0 0.0234375 0
0.0078125 0.0234375 0
0.0078125 0.015625 0
0.015625 0.015625 0
0.0078125 0.0234375 0
0.015625 0.0234375 0
0 0.0234375 0
0.0078125 0.0234375 0
0 0.03125 0
0.0078125 0.03125 0
0.0078125 0.0234375 0
0.015625 0.0234375 0
0.0078125 0.03125 0
0.015625 0.03125 0
0.015625 0.015625 0
0.0234375 0.015625 0
0.015625 0.0234375 0
0.0234375 0.0234375 0
0.0234375 0.015625 0
0.03125 0.015625 0
0.0234375 0.0234375 0
0.03125 0.0234375 0
0.015625 0.0234375 0
0.0234375 0.0234375 0
0.015625 0.03125 0
0.0234375 0.03125 0
0.0234375 0.0234375 0
0.03125 0.0234375 0
0.0234375 0.03125 0
0.03125 0.03125 0
0.03125 0 0
0.0390625 0 0
0.03125 0.0078125 0
0.0390625 0.0078125 0
0.0390625 0 0
0.046875 0 0
0.0390625 0.0078125 0
0.046875 0.0078125 0
0.03125 0.0078125 0
0.0390625 0.0078125 0
0.03125 0.015625 0
0.0390625 0.015625 0
0.0390625 0.0078125 0
0.046875 0.0078125 0
0.0390625 0.015625 0
0.046875 0.015625 0
0.046875 0 0
0.0546875 0 0
0.046875 0.0078125 0
0.0546875 0.0078125 0
0.0546875 0 0
0.0625 0 0
0.0546875 0.0078125 0
0.0625 0.0078125 0
0.046875 0.0078125 0
0.0546875 0.0078125 0
0.046875 0.015625 0
0.0546875 0.015625 0
0.0546875 0.0078125 0
0.0625 0.0078125 0
0.0546875 0.015625 0
0.0625 0.015625 0
0.03125 0.015625 0
0.0390625 0.015625 0
0.03125 0.0234375 0
0.0390625 0.0234375 0
0.0390625 0.015625 0
0.046875 0.015625 0
0.0390625 0.0234375 0
0.046875 0.0234375 0
0.03125 0.0234375 0
0.0390625 0.0234375 0
0.03125 0.03125 0
0.0390625 0.03125 0
0.0390625 0.0234375 0
0.046875 0.0234375 0
0.0390625 0.03125 0
0.046875 0.03125 0
0.046875 0.015625 0
0.0546875 0.015625 0
0.046875 0.0234375 0
0.0546875 0.0234375 0
0.0546875 0.015625 0
0.0625 0.015625 0
0.0546875 0.0234375 0
0.0625 0.0234375 0
0.046875 0.0234375 0
0.0546875 0.0234375 0
0.046875 0.03125 0
0.0546875 0.03125 0
0.0546875 0.0234375 0
0.0625 0.0234375 0
0.0546875 0.03125 0
0.0625 0.03125 0
0 0.03125 0
0.0078125 0.03125 0
0 0.0390625 0
0.0078125 0.0390625 0
0.0078125 0.03125 0
0.015625 0.03125 0
0.0078125 0.0390625 0
0.015625 0.0390625 0
0 0.0390625 0
0.0078125 0.0390625 0
0 0.046875 0
0.0078125 0.046875 0
0.0078125 0.0390625 0
0.015625 0.0390625 0
0.0078125 0.046875 0
0.015625 0.046875 0
0.015625 0.03125 0
0.0234375 0.03125 0
0.015625 0.0390625 0
0.0234375 0.0390625 0
0.0234375 0.03125 0
0.03125 0.03125 0
0.0234375 0.0390625 0
0.03125 0.0390625 0
0.015625 0.0390625 0
0.0234375 0.0390625 0
0.015625 0.046875 0
0.0234375 0.046875 0
0.0234375 0.0390625 0
0.03125 0.0390625 0
0.0234375 0.046875 0
0.03125 0.046875 0
0 0.046875 0
0.0078125 0.046875 0
0 0.0546875 0
0.0078125 0.0546875 0
0.0078125 0.046875 0
0.015625 0.046875 0
0.0078125 0.0546875 0
0.015625 0.0546875 0
0 0.0546875 0
0.0078125 0.0546875 0
0 0.0625 0
0.0078125 0.0625 0
0.0078125 0.0546875 0
0.015625 0.0546875 0
0.0078125 0.0625 0
0.015625 0.0625 0
0.015625 0.046875 0
0.0234375 0.046875 0
0.015625 0.0546875 0
0.0234375 0.0546875 0
0.0234375 0.046875 0
0.03125 0.046875 0
0.0234375 0.0546875 0
0.03125 0.0546875 0
0.015625 0.0546875 0
0.0234375 0.0546875 0
0.015625 0.0625 0
0.0234375 0.0625 0
0.0234375 0.0546875 0
0.03125 0.0546875 0
0.0234375 0.0625 0
0.03125 0.0625 0
0.03125 0.03125 0
0.0390625 0.03125 0
0.03125 0.0390625 0
0.0390625 0.0390625 0
0.0390625 0.03125 0
0.046875 0.03125 0
0.0390625 0.0390625 0
0.046875 0.0390625 0
0.03125 0.0390625 0
0.0390625 0.0390625 0
0.03125 0.046875 0
0.0390625 0.046875 0
0.0390625 0.0390625 0
0.046875 0.0390625 0
0.0390625 0.046875 0
0.046875 0.046875 0
0.046875 0.03125 0
0.0546875 0.03125 0
0.046875 0.0390625 0
0.0546875 0.0390625 0
0.0546875 0.03125 0
0.0625 0.03125 0
0.0546875 0.0390625 0
0.0625 0.0390625 0
0.046875 0.0390625 0
0.0546875 0.0390625 0
0.046875 0.046875 0
0.0546875 0.046875 0
0.0546875 0.0390625 0
0.0625 0.0390625 0
0.0546875 0.046875 0
0.0625 0.046875 0
0.03125 0.046875 0
0.0390625 0.046875 0
0.03125 0.0546875 0
0.0390625 0.0546875 0
0.0390625 0.046875 0
0.046875 0.046875 0
0.0390625 0.0546875 0
0.046875 0.0546875 0
0.03125 0.0546875 0
0.0390625 0.0546875 0
0.03125 0.0625 0
0.0390625 0.0625 0
0.0390625 0.0546875 0
0.046875 0.0546875 0
0.0390625 0.0625 0
0.046875 0.0625 0
0.046875 0.046875 0
0.0546875 0.046875 0
0.046875 0.0546875 0
0.0546875 0.0546875 0
0.0546875 0.046875 0
0.0625 0.046875 0
0.0546875 0.0546875 0
0.0625 0.0546875 0
0.046875 0.0546875 0
0.0546875 0.0546875 0
0.046875 0.0625 0
0.0546875 0.0625 0
0.0546875 0.0546875 0
0.0625 0.0546875 0
0.0546875 0.0625 0
0.0625 0.0625 0
0.0625 0 0
0.0703125 0 0
0.0625 0.0078125 0
0.0703125 0.0078125 0
0.0703125 0 0
0.078125 0 0
0.0703125 0.0078125 0
0.078125 0.0078125 0
0.0625 0.0078125 0
0.0703125 0.0078125 0
0.0625 0.015625 0
0.0703125 0.015625 0
0.0703125 0.0078125 0
0.078125 0.0078125 0
0.0703125 0.015625 0
0.078125 0.015625 0
0.078125 0 0
0.0859375 0 0
0.078125 0.0078125 0
0.0859375 0.0078125 0
0.0859375 0 0
0.09375 0 0
0.0859375 0.0078125 0
0.09375 0.0078125 0
0.078125 0.0078125 0
0.0859375 0.0078125 0
0.078125 0.015625 0
0.0859375 0.015625 0
0.0859375 0.0078125 0
0.09375 0.0078125 0
0.0859375 0.015625 0
0.09375 0.015625 0
0.0625 0.015625 0
0.0703125 0.015625 0
0.0625 0.0234375 0
0.0703125 0.0234375 0
0.0703125 0.015625 0
0.078125 0.015625 0
0.0703125 0.0234375 0
0.078125 0.0234375 0
0.0625 0.0234375 0
0.0703125 0.0234375 0
0.0625 0.03125 0
0.0703125 0.03125 0
0.0703125 0.0234375 0
0.078125 0.0234375 0
0.0703125 0.03125 0
0.078125 0.03125 0
0.078125 0.015625 0
0.0859375 0.015625 0
0.078125 0.0234375 0
0.0859375 0.0234375 0
0.0859375 0.015625 0
0.09375 0.015625 0
0.0859375 0.0234375 0
0.09375 0.0234375 0
0.078125 0.0234375 0
0.0859375 0.0234375 0
0.078125 0.03125 0
0.0859375 0.03125 0
0.0859375 0.0234375 0
0.09375 0.0234375 0
0.0859375 0.03125 0
0.09375 0.03125 0
0.09375 0 0
0.101562 0 0
0.09375 0.0078125 0
0.101562 0.0078125 0
0.101562 0 0
0.109375 0 0
0.101562 0.0078125 0
0.109375 0.0078125 0
0.09375 0.0078125 0
0.101562 0.0078125 0
0.09375 0.015625 0
0.101562 0.015625 0
0.101562 0.0078125 0
0.109375 0.0078125 0
0.101562 0.015625 0
0.109375 0.015625 0
0.109375 0 0
0.117188 0 0
0.109375 0.0078125 0
0.117188 0.0078125 0
0.117188 0 0
0.125 0 0
0.117188 0.0078125 0
0.125 0.0078125 0
0.109375 0.0078125 0
0.117188 0.0078125 0
0.109375 0.015625 0
0.117188 0.015625 0
0.117188 0.0078125 0
0.125 0.0078125 0
0.117188 0.015625 0
0.125 0.015625 0
0.09375 0.015625 0
0.101562 0.015625 0
0.09375 0.0234375 0
0.101562 0.0234375 0
0.101562 0.015625 0
0.109375 0.015625 0
0.101562 0.0234375 0
0.109375 0.0234375 0
0.09375 0.0234375 0
0.101562 0.0234375 0
0.09375 0.03125 0
0.101562 0.03125 0
0.101562 0.0234375 0
0.109375 0.0234375 0
0.101562 0.03125 0
0.109375 0.03125 0
0.109375 0.015625 0
0.117188 0.015625 0
0.109375 0.0234375 0
0.117188 0.0234375 0
0.117188 0.015625 0
0.125 0.015625 0
0.117188 0.0234375 0
0.125 0.0234375 0
0.109375 0.0234375 0
0.117188 0.0234375 0
0.109375 0.03125 0
0.117188 0.03125 0
0.117188 0.0234375 0
0.125 0.0234375 0
0.117188 0.03125 0
0.125 0.03125 0
0.0625 0.03125 0
0.0703125 0.03125 0
0.0625 0.0390625 0
0.0703125 0.0390625 0
0.0703125 0.03125 0
0.078125 0.03125 0
0.0703125 0.0390625 0
0.078125 0.0390625 0
0.0625 0.0390625 0
0.0703125 0.0390625 0
0.0625 0.046875 0
0.0703125 0.046875 0
0.0703125 0.0390625 0
0.078125 0.0390625 0
0.0703125 0.046875 0
0.078125 0.046875 0
0.078125 0.03125 0
0.0859375 0.03125 0
0.078125 0.0390625 0
0.0859375 0.0390625 0
0.0859375 0.03125 0
0.09375 0.03125 0
0.0859375 0.0390625 0
0.09375 0.0390625 0
0.078125 0.0390625 0
0.0859375 0.0390625 0
0.078125 0.046875 0
0.0859375 0.046875 0
0.0859375 0.0390625 0
0.09375 0.0390625 0
0.0859375 0.046875 0
0.09375 0.046875 0
0.0625 0.046875 0
0.0703125 0.046875 0
0.0625 0.0546875 0
0.0703125 0.0546875 0
0.0703125 0.046875 0
0.078125 0.046875 0
0.0703125 0.0546875 0
0.078125 0.0546875 0
0.0625 0.0546875 0
0.0703125 0.0546875 0
0.0625 0.0625 0
0.0703125 0.0625 0
0.0703125 0.0546875 0
0.078125 0.0546875 0
0.0703125 0.0625 0
0.078125 0.0625 0
0.078125 0.046875 0
0.0859375 0.046875 0
0.078125 0.0546875 0
0.0859375 0.0546875 0
0.0859375 0.046875 0
0.09375 0.046875 0
0.0859375 0.0546875 0
0.09375 0.0546875 0
0.078125 0.0546875 0
0.0859375 0.0546875 0
0.078125 0.0625 0
0.0859375 0.0625 0
0.0859375 0.0546875 0
0.09375 0.0546875 0
0.0859375 0.0625 0
0.09375 0.0625 0
0.09375 0.03125 0
0.101562 0.03125 0
0.09375 0.0390625 0
0.101562 0.0390625 0
0.101562 0.03125 0
0.109375 0.03125 0
0.101562 0.0390625 0
0.109375 0.0390625 0
0.09375 0.0390625 0
0.101562 0.0390625 0
0.09375 0.046875 0
0.101562 0.046875 0
0.101562 0.0390625 0
0.109375 0.0390625 0
0.101562 0.046875 0
0.109375 0.046875 0
0.109375 0.03125 0
0.117188 0.03125 0
0.109375 0.0390625 0
0.117188 0.0390625 0
0.117188 0.03125 0
0.125 0.03125 0
0.117188 0.0390625 0
0.125 0.0390625 0
0.109375 0.0390625 0
0.117188 0.0390625 0
0.109375 0.046875 0
0.117188 0.046875 0
0.117188 0.0390625 0
0.125 0.0390625 0
0.117188 0.046875 0
0.125 0.046875 0
0.09375 0.046875 0
0.101562 0.046875 0
0.09375 0.0546875 0
0.101562 0.0546875 0
0.101562 0.046875 0
0.109375 0.046875 0
0.101562 0.0546875 0
0.109375 0.0546875 0
0.09375 0.0546875 0
0.101562 0.0546875 0
0.09375 0.0625 0
0.101562 0.0625 0
0.101562 0.0546875 0
0.109375 0.0546875 0
0.101562 0.0625 0
0.109375 0.0625 0
0.109375 0.046875 0
0.117188 0.046875 0
0.109375 0.0546875 0
0.117188 0.0546875 0
0.117188 0.046875 0
[...]
POINT_DATA 65536
SCALARS solution double 1
LOOKUP_TABLE default
0 0 0 -8.44365e-06 0 0 -8.44365e-06 -1.69088e-05 0 -8.44365e-06 0 -1.68658e-05 -8.44365e-06 -1.69088e-05 -1.68658e-05 -3.37745e-05 0 0 -1.69088e-05 -2.54173e-05 0 0 -2.54173e-05 -3.39908e-05 -1.69088e-05 -2.54173e-05 -3.37745e-05 -5.07695e-05 -2.54173e-05 -3.39908e-05 -5.07695e-05 -6.78943e-05 0 -1.68658e-05 0 -2.52449e-05 -1.68658e-05 -3.37745e-05 -2.52449e-05 -5.05541e-05 0 -2.52449e-05 0 -3.356e-05 -2.52449e-05 -5.05541e-05 -3.356e-05 -6.7205e-05 -3.37745e-05 -5.07695e-05 -5.05541e-05 -7.59919e-05 -5.07695e-05 -6.78943e-05 -7.59919e-05 -0.000101624 -5.05541e-05 -7.59919e-05 -6.7205e-05 -0.00010102 -7.59919e-05 -0.000101624 -0.00010102 -0.000135093 0 0 -3.39908e-05 -4.26518e-05 0 0 -4.26518e-05 -5.14231e-05 -3.39908e-05 -4.26518e-05 -6.78943e-05 -8.51936e-05 -4.26518e-05 -5.14231e-05 -8.51936e-05 -0.000102713 0 0 -5.14231e-05 -6.03279e-05 0 0 -6.03279e-05 -6.93906e-05 -5.14231e-05 -6.03279e-05 -0.000102713 -0.000120498 -6.03279e-05 -6.93906e-05 -0.000120498 -0.000138598 -6.78943e-05 -8.51936e-05 -0.000101624 -0.000127516 -8.51936e-05 -0.000102713 -0.000127516 -0.000153736 -0.000101624 -0.000127516 -0.000135093 -0.00016951 -0.000127516 -0.000153736 -0.00016951 -0.000204362 -0.000102713 -0.000120498 -0.000153736 -0.000180354 -0.000120498 -0.000138598 -0.000180354 -0.000207442 -0.000153736 -0.000180354 -0.000204362 -0.00023974 -0.000180354 -0.000207442 -0.00023974 -0.000275741 0 -3.356e-05 0 -4.17902e-05 -3.356e-05 -6.7205e-05 -4.17902e-05 -8.36857e-05 0 -4.17902e-05 0 -4.99151e-05 -4.17902e-05 -8.36857e-05 -4.99151e-05 -9.99552e-05 -6.7205e-05 -0.00010102 -8.36857e-05 -0.000125792 -0.00010102 -0.000135093 -0.000125792 -0.000168218 -8.36857e-05 -0.000125792 -9.99552e-05 -0.000150246 -0.000125792 -0.000168218 -0.000150246 -0.000200916 0 -4.99151e-05 0 -5.7915e-05 -4.99151e-05 -9.99552e-05 -5.7915e-05 -0.000115974 0 -5.7915e-05 0 -6.57708e-05 -5.7915e-05 -0.000115974 -6.57708e-05 -0.000131704 -9.99552e-05 -0.000150246 -0.000115974 -0.000174322 -0.000150246 -0.000200916 -0.000174322 -0.000233107 -0.000115974 -0.000174322 -0.000131704 -0.000197963 -0.000174322 -0.000233107 -0.000197963 -0.000264713 -0.000135093 -0.00016951 -0.000168218 -0.00021107 -0.00016951 -0.000204362 -0.00021107 -0.000254461 -0.000168218 -0.00021107 -0.000200916 -0.000252092 -0.00021107 -0.000254461 -0.000252092 -0.000303908 -0.000204362 -0.00023974 -0.000254461 -0.000298505 -0.00023974 -0.000275741 -0.000298505 -0.00034332 -0.000254461 -0.000298505 -0.000303908 -0.0003565 -0.000298505 -0.00034332 -0.0003565 -0.000410006 -0.000200916 -0.000252092 -0.000233107 -0.000292475 -0.000252092 -0.000303908 -0.000292475 -0.000352581 -0.000233107 -0.000292475 -0.000264713 -0.000332122 -0.000292475 -0.000352581 -0.000332122 -0.000400361 -0.000303908 -0.0003565 -0.000352581 -0.00041358 -0.0003565 -0.000410006 -0.00041358 -0.000475633 -0.000352581 -0.00041358 -0.000400361 -0.000469606 -0.00041358 -0.000475633 -0.000469606 -0.000540039 0 0 -6.93906e-05 -7.86363e-05 0 0 -7.86363e-05 -8.80911e-05 -6.93906e-05 -7.86363e-05 -0.000138598 -0.000157064 -7.86363e-05 -8.80911e-05 -0.000157064 -0.000175946 0 0 -8.80911e-05 -9.77824e-05 0 0 -9.77824e-05 -0.000107739 -8.80911e-05 -9.77824e-05 -0.000175946 -0.0001953 -9.77824e-05 -0.000107739 -0.0001953 -0.000215183 -0.000138598 -0.000157064 -0.000207442 -0.000235074 -0.000157064 -0.000175946 -0.000235074 -0.000263329 -0.000207442 -0.000235074 -0.000275741 -0.000312463 -0.000235074 -0.000263329 -0.000312463 -0.000350009 -0.000175946 -0.0001953 -0.000263329 -0.000292288 -0.0001953 -0.000215183 -0.000292288 -0.000322037 -0.000263329 -0.000292288 -0.000350009 -0.000388488 -0.000292288 -0.000322037 -0.000388488 -0.000428012 0 0 -0.000107739 -0.000117992 0 0 -0.000117992 -0.000128573 -0.000107739 -0.000117992 -0.000215183 -0.000235656 -0.000117992 -0.000128573 -0.000235656 -0.000256784 0 0 -0.000128573 -0.000139516 0 0 -0.000139516 -0.000150859 -0.000128573 -0.000139516 -0.000256784 -0.000278634 -0.000139516 -0.000150859 -0.000278634 -0.00030128 -0.000215183 -0.000235656 -0.000322037 -0.000352666 -0.000235656 -0.000256784 -0.000352666 -0.000384272 -0.000322037 -0.000352666 -0.000428012 -0.000468701 -0.000352666 -0.000384272 -0.000468701 -0.000510683 -0.000256784 -0.000278634 -0.000384272 -0.000416956 -0.000278634 -0.00030128 -0.000416956 -0.000450828 -0.000384272 -0.000416956 -0.000510683 -0.000554093 -0.000416956 -0.000450828 -0.000554093 -0.000599074 -0.000275741 -0.000312463 -0.00034332 -0.000389029 -0.000312463 -0.000350009 -0.000389029 -0.000435758 -0.00034332 -0.000389029 -0.000410006 -0.000464574 -0.000389029 -0.000435758 -0.000464574 -0.000520353 -0.000350009 -0.000388488 -0.000435758 -0.000483643 -0.000388488 -0.000428012 -0.000483643 -0.000532822 -0.000435758 -0.000483643 -0.000520353 -0.000577503 -0.000483643 -0.000532822 -0.000577503 -0.00063619 -0.000410006 -0.000464574 -0.000475633 -0.000538908 -0.000464574 -0.000520353 -0.000538908 -0.000603579 -0.000475633 -0.000538908 -0.000540039 -0.000611848 -0.000538908 -0.000603579 -0.000611848 -0.000685229 -0.000520353 -0.000577503 -0.000603579 -0.000669829 -0.000577503 -0.00063619 -0.000669829 -0.000737848 -0.000603579 -0.000669829 -0.000685229 -0.000760386 -0.000669829 -0.000737848 -0.000760386 -0.000837536 -0.000428012 -0.000468701 -0.000532822 -0.000583445 -0.000468701 -0.000510683 -0.000583445 -0.000635669 -0.000532822 -0.000583445 -0.00063619 -0.00069659 -0.000583445 -0.000635669 -0.00069659 -0.000758889 -0.000510683 -0.000554093 -0.000635669 -0.00068966 -0.000554093 -0.000599074 -0.00068966 -0.000745596 -0.000635669 -0.00068966 -0.000758889 -0.000823283 -0.00068966 -0.000745596 -0.000823283 -0.000889984 -0.00063619 -0.00069659 -0.000737848 -0.000807839 -0.00069659 -0.000758889 -0.000807839 -0.000880014 -0.000737848 -0.000807839 -0.000837536 -0.000916904 -0.000807839 -0.000880014 -0.000916904 -0.000998731 -0.000758889 -0.000823283 -0.000880014 -0.000954602 -0.000823283 -0.000889984 -0.000954602 -0.00103184 -0.000880014 -0.000954602 -0.000998731 -0.00108327 -0.000954602 -0.00103184 -0.00108327 -0.00117079 0 0 -0.000150859 -0.00016264 0 0 -0.00016264 -0.000174902 -0.000150859 -0.00016264 -0.00030128 -0.000324801 -0.00016264 -0.000174902 -0.000324801 -0.000349279 0 0 -0.000174902 -0.00018769 0 0 -0.00018769 -0.000201052 -0.000174902 -0.00018769 -0.000349279 -0.000374805 -0.00018769 -0.000201052 -0.000374805 -0.000401478 -0.00030128 -0.000324801 -0.000450828 -0.000486004 -0.000324801 -0.000349279 -0.000486004 -0.000522608 -0.000450828 -0.000486004 -0.000599074 -0.00064578 -0.000486004 -0.000522608 -0.00064578 -0.000694376 -0.000349279 -0.000374805 -0.000522608 -0.000560777 -0.000374805 -0.000401478 -0.000560777 -0.000600653 -0.000522608 -0.000560777 -0.000694376 -0.000745041 -0.000560777 -0.000600653 -0.000745041 -0.000797966 0 0 -0.000201052 -0.000215043 0 0 -0.000215043 -0.000229718 -0.000201052 -0.000215043 -0.000401478 -0.000429401 -0.000215043 -0.000229718 -0.000429401 -0.00045869 0 0 -0.000229718 -0.000245141 0 0 -0.000245141 -0.000261379 -0.000229718 -0.000245141 -0.00045869 -0.000489467 -0.000245141 -0.000261379 -0.000489467 -0.000521869 -0.000401478 -0.000429401 -0.000600653 -0.000642396 -0.000429401 -0.00045869 -0.000642396 -0.000686174 -0.000600653 -0.000642396 -0.000797966 -0.000853358 -0.000642396 -0.000686174 -0.000853358 -0.000911441 -0.00045869 -0.000489467 -0.000686174 -0.000732172 -0.000489467 -0.000521869 -0.000732172 -0.000780591 -0.000686174 -0.000732172 -0.000911441 -0.000972459 -0.000732172 -0.000780591 -0.000972459 -0.00103668 -0.000599074 -0.00064578 -0.000745596 -0.000803667 -0.00064578 -0.000694376 -0.000803667 -0.000864078 -0.000745596 -0.000803667 -0.000889984 -0.000959218 -0.000803667 -0.000864078 -0.000959218 -0.00103122 -0.000694376 -0.000745041 -0.000864078 -0.000927048 -0.000745041 -0.000797966 -0.000927048 -0.000992814 -0.000864078 -0.000927048 -0.00103122 -0.00110626 -0.000927048 -0.000992814 -0.00110626 -0.00118461 -0.000889984 -0.000959218 -0.00103184 -0.001112 -0.000959218 -0.00103122 -0.001112 -0.00119534 -0.00103184 -0.001112 -0.00117079 -0.00126159 -0.001112 -0.00119534 -0.00126159 -0.00135597 -0.00103122 -0.00110626 -0.00119534 -0.00128217 -0.00110626 -0.00118461 -0.00128217 -0.0013728 -0.00119534 -0.00128217 -0.00135597 -0.00145427 -0.00128217 -0.0013728 -0.00145427 -0.00155685 -0.000797966 -0.000853358 -0.000992814 -0.00106163 -0.000853358 -0.000911441 -0.00106163 -0.00113378 -0.000992814 -0.00106163 -0.00118461 -0.00126658 -0.00106163 -0.00113378 -0.00126658 -0.00135249 -0.000911441 -0.000972459 -0.00113378 -0.00120955 -0.000972459 -0.00103668 -0.00120955 -0.00128928 -0.00113378 -0.00120955 -0.00135249 -0.00144269 -0.00120955 -0.00128928 -0.00144269 -0.00153757 -0.00118461 -0.00126658 -0.0013728 -0.00146759 -0.00126658 -0.00135249 -0.00146759 -0.00156691 -0.0013728 -0.00146759 -0.00155685 -0.00166408 -0.00146759 -0.00156691 -0.00166408 -0.0017764 -0.00135249 -0.00144269 -0.00156691 -0.00167115 -0.00144269 -0.00153757 -0.00167115 -0.00178078 -0.00156691 -0.00167115 -0.0017764 -0.00189425 -0.00167115 -0.00178078 -0.00189425 -0.00201813 0 0 -0.000261379 -0.000278505 0 0 -0.000278505 -0.000296601 -0.000261379 -0.000278505 -0.000521869 -0.000556042 -0.000278505 -0.000296601 -0.000556042 -0.000592146 0 0 -0.000296601 -0.000315755 0 0 -0.000315755 -0.000336063 -0.000296601 -0.000315755 -0.000592146 -0.000630358 -0.000315755 -0.000336063 -0.000630358 -0.000670868 -0.000521869 -0.000556042 -0.000780591 -0.00083165 -0.000556042 -0.000592146 -0.00083165 -0.000885588 -0.000780591 -0.00083165 -0.00103668 -0.00110438 -0.00083165 -0.000885588 -0.00110438 -0.00117589 -0.000592146 -0.000630358 -0.000885588 -0.000942664 -0.000630358 -0.000670868 -0.000942664 -0.00100317 -0.000885588 -0.000942664 -0.00117589 -0.00125155 -0.000942664 -0.00100317 -0.00125155 -0.00133173 0 0 -0.000336063 -0.00035763 0 0 -0.00035763 -0.000380574 -0.000336063 -0.00035763 -0.000670868 -0.000713887 -0.00035763 -0.000380574 -0.000713887 -0.000759646 0 0 -0.000380574 -0.00040502 0 0 -0.00040502 -0.000431109 -0.000380574 -0.00040502 -0.000759646 -0.000808399 -0.00040502 -0.000431109 -0.000808399 -0.000860423 -0.000670868 -0.000713887 -0.00100317 -0.00106741 -0.000713887 -0.000759646 -0.00106741 -0.00113573 -0.00100317 -0.00106741 -0.00133173 -0.00141685 -0.00106741 -0.00113573 -0.00141685 -0.00150736 -0.000759646 -0.000808399 -0.00113573 -0.00120851 -0.000808399 -0.000860423 -0.00120851 -0.00128617 -0.00113573 -0.00120851 -0.00150736 -0.00160376 -0.00120851 -0.00128617 -0.00160376 -0.00170659 -0.00103668 -0.00110438 -0.00128928 -0.00137332 -0.00110438 -0.00117589 -0.00137332 -0.00146206 -0.00128928 -0.00137332 -0.00153757 -0.00163756 -0.00137332 -0.00146206 -0.00163756 -0.0017431 -0.00117589 -0.00125155 -0.00146206 -0.00155592 -0.00125155 -0.00133173 -0.00155592 -0.00165537 -0.00146206 -0.00155592 -0.0017431 -0.00185471 -0.00155592 -0.00165537 -0.00185471 -0.00197292 -0.00153757 -0.00163756 -0.00178078 -0.00189625 -0.00163756 -0.0017431 -0.00189625 -0.0020181 -0.00178078 -0.00189625 -0.00201813 -0.00214857 -0.00189625 -0.0020181 -0.00214857 -0.00228616 -0.0017431 -0.00185471 -0.0020181 -0.0021469 -0.00185471 -0.00197292 -0.0021469 -0.00228327 -0.0020181 -0.0021469 -0.00228616 -0.00243152 -0.0021469 -0.00228327 -0.00243152 -0.00258537 -0.00133173 -0.00141685 -0.00165537 -0.00176091 -0.00141685 -0.00150736 -0.00176091 -0.00187311 -0.00165537 -0.00176091 -0.00197292 -0.00209833 -0.00176091 -0.00187311 -0.00209833 -0.00223161 -0.00150736 -0.00160376 -0.00187311 -0.00199258 -0.00160376 -0.00170659 -0.00199258 -0.00211998 -0.00187311 -0.00199258 -0.00223161 -0.00237347 -0.00199258 -0.00211998 -0.00237347 -0.00252471 -0.00197292 -0.00209833 -0.00228327 -0.00242789 -0.00209833 -0.00223161 -0.00242789 -0.00258153 -0.00228327 -0.00242789 -0.00258537 -0.00274846 -0.00242789 -0.00258153 -0.00274846 -0.00292163 -0.00223161 -0.00237347 -0.00258153 -0.002745 -0.00237347 -0.00252471 -0.002745 -0.0029192 -0.00258153 -0.002745 -0.00292163 -0.0031058 -0.002745 -0.0029192 -0.0031058 -0.00330197 0 0 -0.000431109 -0.000458994 0 0 -0.000458994 -0.000488845 -0.000431109 -0.000458994 -0.000860423 -0.000916026 -0.000458994 -0.000488845 -0.000916026 -0.000975543 0 0 -0.000488845 -0.000520848 0 0 -0.000520848 -0.000555205 -0.000488845 -0.000520848 -0.000975543 -0.00103934 -0.000520848 -0.000555205 -0.00103934 -0.00110783 -0.000860423 -0.000916026 -0.00128617 -0.00136915 -0.000916026 -0.000975543 -0.00136915 -0.00145796 -0.00128617 -0.00136915 -0.00170659 -0.00181645 -0.00136915 -0.00145796 -0.00181645 -0.00193401 -0.000975543 -0.00103934 -0.00145796 -0.00155316 -0.00103934 -0.00110783 -0.00155316 -0.00165534 -0.00145796 -0.00155316 -0.00193401 -0.00205999 -0.00155316 -0.00165534 -0.00205999 -0.0021952 0 0 -0.000555205 -0.000592141 0 0 -0.000592141 -0.000631901 -0.000555205 -0.000592141 -0.00110783 -0.00118146 -0.000592141 -0.000631901 -0.00118146 -0.00126071 0 0 -0.000631901 -0.000674751 0 0 -0.000674751 -0.000720984 -0.000631901 -0.000674751 -0.00126071 -0.00134612 -0.000674751 -0.000720984 -0.00134612 -0.00143827 -0.00110783 -0.00118146 -0.00165534 -0.00176517 -0.00118146 -0.00126071 -0.00176517 -0.00188338 -0.00165534 -0.00176517 -0.0021952 -0.0023405 -0.00176517 -0.00188338 -0.0023405 -0.00249687 -0.00126071 -0.00134612 -0.00188338 -0.00201077 -0.00134612 -0.00143827 -0.00201077 -0.0021482 -0.00188338 -0.00201077 -0.00249687 -0.00266537 -0.00201077 -0.0021482 -0.00266537 -0.00284715 -0.00170659 -0.00181645 -0.00211998 -0.00225607 -0.00181645 -0.00193401 -0.00225607 -0.00240165 -0.00211998 -0.00225607 -0.00252471 -0.0026862 -0.00225607 -0.00240165 -0.0026862 -0.00285891 -0.00193401 -0.00205999 -0.00240165 -0.00255762 -0.00205999 -0.0021952 -0.00255762 -0.00272497 -0.00240165 -0.00255762 -0.00285891 -0.00304388 -0.00255762 -0.00272497 -0.00304388 -0.0032423 -0.00252471 -0.0026862 -0.0029192 -0.00310514 -0.0026862 -0.00285891 -0.00310514 -0.00330391 -0.0029192 -0.00310514 -0.00330197 -0.00351126 -0.00310514 -0.00330391 -0.00351126 -0.0037349 -0.00285891 -0.00304388 -0.00330391 -0.00351673 -0.00304388 -0.0032423 -0.00351673 -0.00374492 -0.00330391 -0.00351673 -0.0037349 -0.00397422 -0.00351673 -0.00374492 -0.00397422 -0.00423073 -0.0021952 -0.0023405 -0.00272497 -0.00290479 -0.0023405 -0.00249687 -0.00290479 -0.00309826 -0.00272497 -0.00290479 -0.0032423 -0.00345543 -0.00290479 -0.00309826 -0.00345543 -0.0036847 -0.00249687 -0.00266537 -0.00309826 -0.00330671 -0.00266537 -0.00284715 -0.00330671 -0.00353157 -0.00309826 -0.00330671 -0.0036847 -0.00393167 -0.00330671 -0.00353157 -0.00393167 -0.00419804 -0.0032423 -0.00345543 -0.00374492 -0.00398996 -0.00345543 -0.0036847 -0.00398996 -0.00425348 -0.00374492 -0.00398996 -0.00423073 -0.00450605 -0.00398996 -0.00425348 -0.00450605 -0.00480202 -0.0036847 -0.00393167 -0.00425348 -0.00453725 -0.00393167 -0.00419804 -0.00453725 -0.00484326 -0.00425348 -0.00453725 -0.00480202 -0.00512063 -0.00453725 -0.00484326 -0.00512063 -0.00546411 0 0 -0.000720984 -0.000770915 0 0 -0.000770915 -0.000824883 -0.000720984 -0.000770915 -0.00143827 -0.0015378 -0.000770915 -0.000824883 -0.0015378 -0.00164537 0 0 -0.000824883 -0.000883253 0 0 -0.000883253 -0.000946406 -0.000824883 -0.000883253 -0.00164537 -0.00176172 -0.000883253 -0.000946406 -0.00176172 -0.00188763 -0.00143827 -0.0015378 -0.0021482 -0.00229663 -0.0015378 -0.00164537 -0.00229663 -0.00245708 -0.0021482 -0.00229663 -0.00284715 -0.00304346 -0.00229663 -0.00245708 -0.00304346 -0.00325569 -0.00164537 -0.00176172 -0.00245708 -0.00263065 -0.00176172 -0.00188763 -0.00263065 -0.0028185 -0.00245708 -0.00263065 -0.00325569 -0.0034853 -0.00263065 -0.0028185 -0.0034853 -0.00373386 0 0 -0.000946406 -0.00101474 0 0 -0.00101474 -0.00108867 -0.000946406 -0.00101474 -0.00188763 -0.0020239 -0.00101474 -0.00108867 -0.0020239 -0.00217135 0 0 -0.00108867 -0.00116859 0 0 -0.00116859 -0.00125488 -0.00108867 -0.00116859 -0.00217135 -0.0023308 -0.00116859 -0.00125488 -0.0023308 -0.00250305 -0.00188763 -0.0020239 -0.0028185 -0.00302186 -0.0020239 -0.00217135 -0.00302186 -0.00324201 -0.0028185 -0.00302186 -0.00373386 -0.00400305 -0.00302186 -0.00324201 -0.00400305 -0.00429461 -0.00217135 -0.0023308 -0.00324201 -0.00348021 -0.0023308 -0.00250305 -0.00348021 -0.0037377 -0.00324201 -0.00348021 -0.00429461 -0.0046103 -0.00348021 -0.0037377 -0.0046103 -0.00495189 -0.00284715 -0.00304346 -0.00353157 -0.00377441 -0.00304346 -0.00325569 -0.00377441 -0.00403693 -0.00353157 -0.00377441 -0.00419804 -0.00448568 -0.00377441 -0.00403693 -0.00448568 -0.00479666 -0.00325569 -0.0034853 -0.00403693 -0.004321 -0.0034853 -0.00373386 -0.004321 -0.00462861 -0.00403693 -0.004321 -0.00479666 -0.00513319 -0.004321 -0.00462861 -0.00513319 -0.00549771 -0.00419804 -0.00448568 -0.00484326 -0.00517366 -0.00448568 -0.00479666 -0.00517366 -0.00553085 -0.00484326 -0.00517366 -0.00546411 -0.00583489 -0.00517366 -0.00553085 -0.00583489 -0.00623569 -0.00479666 -0.00513319 -0.00553085 -0.00591743 -0.00513319 -0.00549771 -0.00591743 -0.00633625 -0.00553085 -0.00591743 -0.00623569 -0.00666946 -0.00591743 -0.00633625 -0.00666946 -0.00713949 -0.00373386 -0.00400305 -0.00462861 -0.00496189 -0.00400305 -0.00429461 -0.00496189 -0.00532307 -0.00462861 -0.00496189 -0.00549771 -0.00589283 -0.00496189 -0.00532307 -0.00589283 -0.00632131 -0.00429461 -0.0046103 -0.00532307 -0.00571449 -0.0046103 -0.00495189 -0.00571449 -0.00613849 -0.00532307 -0.00571449 -0.00632131 -0.00678609 -0.00571449 -0.00613849 -0.00678609 -0.0072902 -0.00549771 -0.00589283 -0.00633625 -0.00679042 -0.00589283 -0.00632131 -0.00679042 -0.00728326 -0.00633625 -0.00679042 -0.00713949 -0.00764936 -0.00679042 -0.00728326 -0.00764936 -0.00820299 -0.00632131 -0.00678609 -0.00728326 -0.00781837 -0.00678609 -0.0072902 -0.00781837 -0.00839952 -0.00728326 -0.00781837 -0.00820299 -0.00880464 -0.00781837 -0.00839952 -0.00880464 -0.00945888 0 0 -0.00125488 -0.00134789 0 0 -0.00134789 -0.00144785 -0.00125488 -0.00134789 -0.00250305 -0.00268879 -0.00134789 -0.00144785 -0.00268879 -0.00288857 0 0 -0.00144785 -0.0015549 0 0 -0.0015549 -0.00166898 -0.00144785 -0.0015549 -0.00288857 -0.00310272 -0.0015549 -0.00166898 -0.00310272 -0.00333118 -0.00250305 -0.00268879 -0.0037377 -0.00401561 -0.00268879 -0.00288857 -0.00401561 -0.00431489 -0.0037377 -0.00401561 -0.00495189 -0.00532102 -0.00401561 -0.00431489 -0.00532102 -0.00571914 -0.00288857 -0.00310272 -0.00431489 -0.00463613 -0.00310272 -0.00333118 -0.00463613 -0.00497948 -0.00431489 -0.00463613 -0.00571914 -0.00614734 -0.00463613 -0.00497948 -0.00614734 -0.00660611 0 0 -0.00166898 -0.00178979 0 0 -0.00178979 -0.00191667 -0.00166898 -0.00178979 -0.00333118 -0.00357342 -0.00178979 -0.00191667 -0.00357342 -0.00382826 0 0 -0.00191667 -0.00204854 0 0 -0.00204854 -0.00218377 -0.00191667 -0.00204854 -0.00382826 -0.0040936 -0.00204854 -0.00218377 -0.0040936 -0.00436631 -0.00333118 -0.00357342 -0.00497948 -0.00534434 -0.00357342 -0.00382826 -0.00534434 -0.00572915 -0.00497948 -0.00534434 -0.00660611 -0.00709508 -0.00534434 -0.00572915 -0.00709508 -0.00761266 -0.00382826 -0.0040936 -0.00572915 -0.00613109 -0.0040936 -0.00436631 -0.00613109 -0.00654567 -0.00572915 -0.00613109 -0.00761266 -0.0081556 -0.00613109 -0.00654567 -0.0081556 -0.00871846 -0.00495189 -0.00532102 -0.00613849 -0.00659737 -0.00532102 -0.00571914 -0.00659737 -0.00709323 -0.00613849 -0.00659737 -0.0072902 -0.00783668 -0.00659737 -0.00709323 -0.00783668 -0.00842849 -0.00571914 -0.00614734 -0.00709323 -0.00762784 -0.00614734 -0.00660611 -0.00762784 -0.00820233 -0.00709323 -0.00762784 -0.00842849 -0.00906829 -0.00762784 -0.00820233 -0.00906829 -0.00975823 -0.0072902 -0.00783668 -0.00839952 -0.00903062 -0.00783668 -0.00842849 -0.00903062 -0.00971565 -0.00839952 -0.00903062 -0.00945888 -0.0101706 -0.00903062 -0.00971565 -0.0101706 -0.010945 -0.00842849 -0.00906829 -0.00971565 -0.0104585 -0.00906829 -0.00975823 -0.0104585 -0.0112625 -0.00971565 -0.0104585 -0.010945 -0.01178