# vtk DataFile Version 3.0
#This file was generated by the deal.II library on 2020/5/26 at 15:48:37
ASCII
DATASET UNSTRUCTURED_GRID

POINTS 248 double
-0.867215 -0.635484 0
-0.749994 -0.75 0
-0.703123 -0.313151 0
-0.499996 -0.5 0
-0.999996 -1 0
-0.999992 -1 0
-0.867215 -0.635484 0
-0.749994 -0.75 0
-0.703123 -0.313151 0
-0.499996 -0.5 0
-0.45231 -0.126319 0
-0.249998 -0.25 0
0.5 1 0
0.473724 0.730011 0
0.75 1 0
0.736862 0.740006 0
0.473724 0.730011 0
0.447449 0.460023 0
0.736862 0.740006 0
0.723724 0.480011 0
0.75 1 0
0.736862 0.740006 0
1 1 0
1 0.75 0
0.736862 0.740006 0
0.723724 0.480011 0
1 0.75 0
1 0.5 0
0.25 1 0
0.156784 0.679088 0
0.5 1 0
0.473724 0.730011 0
0.0635683 0.358176 0
0.156784 0.179088 0
0.447449 0.460023 0
0.473724 0.230011 0
0.156784 0.179088 0
0.25 0 0
0.473724 0.230011 0
0.5 0 0
-0.5 1 0
-0.563151 0.798922 0
-0.25 1 0
-0.361654 0.713543 0
-0.563151 0.798922 0
-0.626302 0.597843 0
-0.361654 0.713543 0
-0.473307 0.427086 0
-0.25 1 0
-0.361654 0.713543 0
2.7528e-12 1 0
-0.160156 0.628165 0
-0.361654 0.713543 0
-0.473307 0.427086 0
-0.160156 0.628165 0
-0.320312 0.25633 0
-1 1 0
-1 0.75 0
-0.75 1 0
-0.781576 0.774461 0
-1 0.75 0
-1 0.5 0
-0.781576 0.774461 0
-0.813151 0.548922 0
-0.75 1 0
-0.781576 0.774461 0
-0.5 1 0
-0.563151 0.798922 0
-0.781576 0.774461 0
-0.813151 0.548922 0
-0.563151 0.798922 0
-0.626302 0.597843 0
-1 0.5 0
-1 0.25 0
-0.813151 0.548922 0
-0.736654 0.338543 0
-1 0.25 0
-1 2.7528e-12 0
-0.736654 0.338543 0
-0.660156 0.128165 0
-0.813151 0.548922 0
-0.736654 0.338543 0
-0.626302 0.597843 0
-0.473307 0.427086 0
-0.736654 0.338543 0
-0.660156 0.128165 0
-0.473307 0.427086 0
-0.320312 0.25633 0
0.447449 0.460023 0
0.473724 0.230011 0
0.723724 0.480011 0
0.736862 0.240006 0
0.473724 0.230011 0
0.5 0 0
0.736862 0.240006 0
0.75 0 0
0.723724 0.480011 0
0.736862 0.240006 0
1 0.5 0
1 0.25 0
0.736862 0.240006 0
0.75 0 0
1 0.25 0
1 0 0
-1 2.7528e-12 0
-0.851561 -0.156576 0
-0.660156 0.128165 0
-0.618936 -0.0457852 0
-0.851561 -0.156576 0
-0.703123 -0.313151 0
-0.618936 -0.0457852 0
-0.577716 -0.219735 0
-0.660156 0.128165 0
-0.618936 -0.0457852 0
-0.320312 0.25633 0
-0.386311 0.0650051 0
-0.618936 -0.0457852 0
-0.577716 -0.219735 0
-0.386311 0.0650051 0
-0.45231 -0.126319 0
-1 -0.5 0
-0.933608 -0.567742 0
-1 -0.25 0
-0.892585 -0.362159 0
-0.933608 -0.567742 0
-0.867215 -0.635484 0
-0.892585 -0.362159 0
-0.785169 -0.474318 0
-1 -0.25 0
-0.892585 -0.362159 0
-1 2.7528e-12 0
-0.851561 -0.156576 0
-0.892585 -0.362159 0
-0.785169 -0.474318 0
-0.851561 -0.156576 0
-0.703123 -0.313151 0
-1 -1 0
-0.999998 -1 0
-1 -0.75 0
-0.966803 -0.783871 0
-0.999998 -1 0
-0.999996 -1 0
-0.966803 -0.783871 0
-0.933606 -0.817742 0
-1 -0.75 0
-0.966803 -0.783871 0
-1 -0.5 0
-0.933608 -0.567742 0
-0.966803 -0.783871 0
-0.933606 -0.817742 0
-0.933608 -0.567742 0
-0.867215 -0.635484 0
-0.320312 0.25633 0
-0.386311 0.0650051 0
-0.160156 0.128165 0
-0.255655 -0.0299975 0
-0.386311 0.0650051 0
-0.45231 -0.126319 0
-0.255655 -0.0299975 0
-0.351154 -0.18816 0
-0.160156 0.128165 0
-0.255655 -0.0299975 0
0 0 0
-0.124999 -0.125 0
-0.255655 -0.0299975 0
-0.351154 -0.18816 0
-0.124999 -0.125 0
-0.249998 -0.25 0
2.7528e-12 1 0
-0.080078 0.814082 0
0.125 1 0
0.061657 0.826813 0
-0.080078 0.814082 0
-0.160156 0.628165 0
0.061657 0.826813 0
-0.00168594 0.653626 0
0.125 1 0
0.061657 0.826813 0
0.25 1 0
0.203392 0.839544 0
0.061657 0.826813 0
-0.00168594 0.653626 0
0.203392 0.839544 0
0.156784 0.679088 0
-0.160156 0.628165 0
-0.240234 0.442247 0
-0.00168594 0.653626 0
-0.0650289 0.48044 0
-0.240234 0.442247 0
-0.320312 0.25633 0
-0.0650289 0.48044 0
-0.128372 0.307253 0
-0.00168594 0.653626 0
-0.0650289 0.48044 0
0.156784 0.679088 0
0.110176 0.518632 0
-0.0650289 0.48044 0
-0.128372 0.307253 0
0.110176 0.518632 0
0.0635683 0.358176 0
0.156784 0.679088 0
0.110176 0.518632 0
0.315254 0.70455 0
0.285381 0.556825 0
0.110176 0.518632 0
0.0635683 0.358176 0
0.285381 0.556825 0
0.255509 0.4091 0
0.315254 0.70455 0
0.285381 0.556825 0
0.473724 0.730011 0
0.460587 0.595017 0
0.285381 0.556825 0
0.255509 0.4091 0
0.460587 0.595017 0
0.447449 0.460023 0
-0.320312 0.25633 0
-0.240234 0.192247 0
-0.128372 0.307253 0
-0.0650289 0.23044 0
-0.240234 0.192247 0
-0.160156 0.128165 0
-0.0650289 0.23044 0
-0.00168594 0.153626 0
-0.128372 0.307253 0
-0.0650289 0.23044 0
0.0635683 0.358176 0
0.110176 0.268632 0
-0.0650289 0.23044 0
-0.00168594 0.153626 0
0.110176 0.268632 0
0.156784 0.179088 0
-0.160156 0.128165 0
-0.080078 0.0640824 0
-0.00168594 0.153626 0
0.061657 0.0768132 0
-0.080078 0.0640824 0
0 0 0
0.061657 0.0768132 0
0.125 0 0
-0.00168594 0.153626 0
0.061657 0.0768132 0
0.156784 0.179088 0
0.203392 0.089544 0
0.061657 0.0768132 0
0.125 0 0
0.203392 0.089544 0
0.25 0 0

CELLS 62 310
4	0	1	3	2
4	4	5	7	6
4	8	9	11	10
4	12	13	15	14
4	16	17	19	18
4	20	21	23	22
4	24	25	27	26
4	28	29	31	30
4	32	33	35	34
4	36	37	39	38
4	40	41	43	42
4	44	45	47	46
4	48	49	51	50
4	52	53	55	54
4	56	57	59	58
4	60	61	63	62
4	64	65	67	66
4	68	69	71	70
4	72	73	75	74
4	76	77	79	78
4	80	81	83	82
4	84	85	87	86
4	88	89	91	90
4	92	93	95	94
4	96	97	99	98
4	100	101	103	102
4	104	105	107	106
4	108	109	111	110
4	112	113	115	114
4	116	117	119	118
4	120	121	123	122
4	124	125	127	126
4	128	129	131	130
4	132	133	135	134
4	136	137	139	138
4	140	141	143	142
4	144	145	147	146
4	148	149	151	150
4	152	153	155	154
4	156	157	159	158
4	160	161	163	162
4	164	165	167	166
4	168	169	171	170
4	172	173	175	174
4	176	177	179	178
4	180	181	183	182
4	184	185	187	186
4	188	189	191	190
4	192	193	195	194
4	196	197	199	198
4	200	201	203	202
4	204	205	207	206
4	208	209	211	210
4	212	213	215	214
4	216	217	219	218
4	220	221	223	222
4	224	225	227	226
4	228	229	231	230
4	232	233	235	234
4	236	237	239	238
4	240	241	243	242
4	244	245	247	246

CELL_TYPES 62
 9 9 9 9 9 9 9 9 9 9 9 9 9 9 9 9 9 9 9 9 9 9 9 9 9 9 9 9 9 9 9 9 9 9 9 9 9 9 9 9 9 9 9 9 9 9 9 9 9 9 9 9 9 9 9 9 9 9 9 9 9 9
POINT_DATA 248
SCALARS solution double 1
LOOKUP_TABLE default
0.129381 -3.29313e-06 0.234333 -2.38087e-06 -2.07267e-06 -4.14534e-06 0.129381 -3.29313e-06 0.234333 -2.38087e-06 0.21789 -1.36745e-06 0.846667 0.639433 0.807691 0.609942 0.639433 0.418507 0.609942 0.403357 0.807691 0.609942 0.775587 0.588589 0.609942 0.403357 0.588589 0.396312 0.894096 0.658898 0.846667 0.639433 0.399702 0.199513 0.418507 0.211768 0.199513 0 0.211768 0 1.0916 0.966545 1.0174 0.834856 0.966545 0.842228 0.834856 0.653967 1.0174 0.834856 0.951057 0.702348 0.834856 0.653967 0.702348 0.450584 1.25493 1.08777 1.17146 1.02539 1.08777 0.919581 1.02539 0.879163 1.17146 1.02539 1.0916 0.966545 1.02539 0.879163 0.966545 0.842228 0.919581 0.752092 0.879163 0.698771 0.752092 0.587785 0.698771 0.512853 0.879163 0.698771 0.842228 0.653967 0.698771 0.512853 0.653967 0.450584 0.418507 0.211768 0.403357 0.203251 0.211768 0 0.203251 0 0.403357 0.203251 0.396312 0.199511 0.203251 0 0.199511 0 0.587785 0.413745 0.512853 0.367946 0.413745 0.234333 0.367946 0.225318 0.512853 0.367946 0.450584 0.325974 0.367946 0.225318 0.325974 0.21789 0.278334 0.204014 0.429277 0.305245 0.204014 0.129381 0.305245 0.17952 0.429277 0.305245 0.587785 0.413745 0.305245 0.17952 0.413745 0.234333 2.91189e-12 -1.03633e-06 0.135412 0.0991361 -1.03633e-06 -2.07267e-06 0.0991361 0.0628059 0.135412 0.0991361 0.278334 0.204014 0.0991361 0.0628059 0.204014 0.129381 0.450584 0.325974 0.25769 0.171825 0.325974 0.21789 0.171825 0.111375 0.25769 0.171825 0 -7.85395e-07 0.171825 0.111375 -7.85395e-07 -1.36745e-06 0.951057 0.827945 0.921359 0.801314 0.827945 0.702348 0.801314 0.677192 0.921359 0.801314 0.894096 0.778729 0.801314 0.677192 0.778729 0.658898 0.702348 0.575142 0.677192 0.548275 0.575142 0.450584 0.548275 0.414646 0.677192 0.548275 0.658898 0.533382 0.548275 0.414646 0.533382 0.399702 0.658898 0.533382 0.646691 0.528551 0.533382 0.399702 0.528551 0.40404 0.646691 0.528551 0.639433 0.530866 0.528551 0.40404 0.530866 0.418507 0.450584 0.358042 0.414646 0.317024 0.358042 0.25769 0.317024 0.212339 0.414646 0.317024 0.399702 0.301049 0.317024 0.212339 0.301049 0.199513 0.25769 0.148784 0.212339 0.101353 0.148784 0 0.101353 0 0.212339 0.101353 0.199513 0.0977347 0.101353 0 0.0977347 0 
