# vtk DataFile Version 3.0
#This file was generated by the deal.II library on 2020/5/26 at 15:48:37
ASCII
DATASET UNSTRUCTURED_GRID

POINTS 164 double
-1 1 0
-1 0.5 0
-0.5 1 0
-0.626302 0.597843 0
-1 0.5 0
-1 2.7528e-12 0
-0.626302 0.597843 0
-0.320312 0.25633 0
0.5 1 0
0.447449 0.460023 0
1 1 0
1 0.5 0
-0.867215 -0.635484 0
-0.749994 -0.75 0
-0.703123 -0.313151 0
-0.499996 -0.5 0
-1 -0.5 0
-0.867215 -0.635484 0
-1 2.7528e-12 0
-0.703123 -0.313151 0
-1 -1 0
-0.999996 -1 0
-1 -0.5 0
-0.867215 -0.635484 0
-0.999996 -1 0
-0.999992 -1 0
-0.867215 -0.635484 0
-0.749994 -0.75 0
-0.703123 -0.313151 0
-0.499996 -0.5 0
-0.45231 -0.126319 0
-0.249998 -0.25 0
-1 2.7528e-12 0
-0.703123 -0.313151 0
-0.320312 0.25633 0
-0.45231 -0.126319 0
2.7528e-12 1 0
-0.160156 0.628165 0
0.25 1 0
0.156784 0.679088 0
-0.160156 0.628165 0
-0.320312 0.25633 0
0.156784 0.679088 0
0.0635683 0.358176 0
0.25 1 0
0.156784 0.679088 0
0.5 1 0
0.473724 0.730011 0
0.156784 0.679088 0
0.0635683 0.358176 0
0.473724 0.730011 0
0.447449 0.460023 0
0.0635683 0.358176 0
0.156784 0.179088 0
0.447449 0.460023 0
0.473724 0.230011 0
-0.320312 0.25633 0
-0.386311 0.0650051 0
-0.160156 0.128165 0
-0.255655 -0.0299975 0
-0.386311 0.0650051 0
-0.45231 -0.126319 0
-0.255655 -0.0299975 0
-0.351154 -0.18816 0
-0.255655 -0.0299975 0
-0.351154 -0.18816 0
-0.124999 -0.125 0
-0.249998 -0.25 0
-0.5 1 0
-0.563151 0.798922 0
-0.25 1 0
-0.361654 0.713543 0
-0.563151 0.798922 0
-0.626302 0.597843 0
-0.361654 0.713543 0
-0.473307 0.427086 0
-0.25 1 0
-0.361654 0.713543 0
2.7528e-12 1 0
-0.160156 0.628165 0
-0.361654 0.713543 0
-0.473307 0.427086 0
-0.160156 0.628165 0
-0.320312 0.25633 0
0.447449 0.460023 0
0.473724 0.230011 0
0.723724 0.480011 0
0.736862 0.240006 0
0.473724 0.230011 0
0.5 0 0
0.736862 0.240006 0
0.75 0 0
0.723724 0.480011 0
0.736862 0.240006 0
1 0.5 0
1 0.25 0
0.736862 0.240006 0
0.75 0 0
1 0.25 0
1 0 0
-0.320312 0.25633 0
-0.240234 0.192247 0
-0.128372 0.307253 0
-0.0650289 0.23044 0
-0.240234 0.192247 0
-0.160156 0.128165 0
-0.0650289 0.23044 0
-0.00168594 0.153626 0
-0.128372 0.307253 0
-0.0650289 0.23044 0
0.0635683 0.358176 0
0.110176 0.268632 0
-0.0650289 0.23044 0
-0.00168594 0.153626 0
0.110176 0.268632 0
0.156784 0.179088 0
-0.160156 0.128165 0
-0.080078 0.0640824 0
-0.00168594 0.153626 0
0.061657 0.0768132 0
-0.080078 0.0640824 0
0 0 0
0.061657 0.0768132 0
0.125 0 0
-0.00168594 0.153626 0
0.061657 0.0768132 0
0.156784 0.179088 0
0.203392 0.089544 0
0.061657 0.0768132 0
0.125 0 0
0.203392 0.089544 0
0.25 0 0
0.156784 0.179088 0
0.203392 0.089544 0
0.315254 0.20455 0
0.345127 0.102275 0
0.203392 0.089544 0
0.25 0 0
0.345127 0.102275 0
0.375 0 0
0.315254 0.20455 0
0.345127 0.102275 0
0.473724 0.230011 0
0.486862 0.115006 0
0.345127 0.102275 0
0.375 0 0
0.486862 0.115006 0
0.5 0 0
-0.160156 0.128165 0
-0.207906 0.0490837 0
-0.080078 0.0640824 0
-0.135203 -0.00670817 0
-0.207906 0.0490837 0
-0.255655 -0.0299975 0
-0.135203 -0.00670817 0
-0.190327 -0.0774987 0
-0.080078 0.0640824 0
-0.135203 -0.00670817 0
0 0 0
-0.0624995 -0.0625 0
-0.135203 -0.00670817 0
-0.190327 -0.0774987 0
-0.0624995 -0.0625 0
-0.124999 -0.125 0

CELLS 41 205
4	0	1	3	2
4	4	5	7	6
4	8	9	11	10
4	12	13	15	14
4	16	17	19	18
4	20	21	23	22
4	24	25	27	26
4	28	29	31	30
4	32	33	35	34
4	36	37	39	38
4	40	41	43	42
4	44	45	47	46
4	48	49	51	50
4	52	53	55	54
4	56	57	59	58
4	60	61	63	62
4	64	65	67	66
4	68	69	71	70
4	72	73	75	74
4	76	77	79	78
4	80	81	83	82
4	84	85	87	86
4	88	89	91	90
4	92	93	95	94
4	96	97	99	98
4	100	101	103	102
4	104	105	107	106
4	108	109	111	110
4	112	113	115	114
4	116	117	119	118
4	120	121	123	122
4	124	125	127	126
4	128	129	131	130
4	132	133	135	134
4	136	137	139	138
4	140	141	143	142
4	144	145	147	146
4	148	149	151	150
4	152	153	155	154
4	156	157	159	158
4	160	161	163	162

CELL_TYPES 41
 9 9 9 9 9 9 9 9 9 9 9 9 9 9 9 9 9 9 9 9 9 9 9 9 9 9 9 9 9 9 9 9 9 9 9 9 9 9 9 9 9
POINT_DATA 164
SCALARS solution double 1
LOOKUP_TABLE default
1.25493 0.919581 1.0916 0.842158 0.919581 0.587785 0.842158 0.450479 0.846667 0.418431 0.775587 0.396312 0.12942 -3.29313e-06 0.234261 -2.38087e-06 0.278334 0.12942 0.587785 0.234261 2.91189e-12 -2.07267e-06 0.278334 0.12942 -2.07267e-06 -4.14534e-06 0.12942 -3.29313e-06 0.234261 -2.38087e-06 0.218 -1.36745e-06 0.587785 0.234261 0.450479 0.218 0.951057 0.702349 0.894096 0.658887 0.702349 0.450479 0.658887 0.399657 0.894096 0.658887 0.846667 0.639462 0.658887 0.399657 0.639462 0.418431 0.399657 0.199549 0.418431 0.21182 0.450479 0.326373 0.258714 0.172091 0.326373 0.218 0.172091 0.111443 0.172091 0.111443 -7.85395e-07 -1.36745e-06 1.0916 0.966571 1.0174 0.834894 0.966571 0.842158 0.834894 0.654226 1.0174 0.834894 0.951057 0.702349 0.834894 0.654226 0.702349 0.450479 0.418431 0.21182 0.403317 0.203255 0.21182 0 0.203255 0 0.403317 0.203255 0.396312 0.199511 0.203255 0 0.199511 0 0.450479 0.357907 0.414829 0.317061 0.357907 0.258714 0.317061 0.212777 0.414829 0.317061 0.399657 0.301144 0.317061 0.212777 0.301144 0.199549 0.258714 0.147898 0.212777 0.101464 0.147898 0 0.101464 0 0.212777 0.101464 0.199549 0.0977398 0.101464 0 0.0977398 0 0.199549 0.0977398 0.202968 0.100825 0.0977398 0 0.100825 0 0.202968 0.100825 0.21182 0.105964 0.100825 0 0.105964 0 0.258714 0.21123 0.147898 0.111764 0.21123 0.172091 0.111764 0.0883225 0.147898 0.111764 0 -4.51091e-07 0.111764 0.0883225 -4.51091e-07 -7.85395e-07 
