# vtk DataFile Version 3.0
#This file was generated by the deal.II library on 2020/5/26 at 15:48:37
ASCII
DATASET UNSTRUCTURED_GRID

POINTS 152 double
-0.867215 -0.635484 0
-0.749994 -0.75 0
-0.703123 -0.313151 0
-0.499996 -0.5 0
-1 -0.5 0
-0.867215 -0.635484 0
-1 2.7528e-12 0
-0.703123 -0.313151 0
-1 -1 0
-0.999996 -1 0
-1 -0.5 0
-0.867215 -0.635484 0
-0.999996 -1 0
-0.999992 -1 0
-0.867215 -0.635484 0
-0.749994 -0.75 0
-0.703123 -0.313151 0
-0.499996 -0.5 0
-0.45231 -0.126319 0
-0.249998 -0.25 0
-0.320312 0.25633 0
-0.45231 -0.126319 0
0 0 0
-0.249998 -0.25 0
0.5 1 0
0.473724 0.730011 0
0.75 1 0
0.736862 0.740006 0
0.473724 0.730011 0
0.447449 0.460023 0
0.736862 0.740006 0
0.723724 0.480011 0
0.75 1 0
0.736862 0.740006 0
1 1 0
1 0.75 0
0.736862 0.740006 0
0.723724 0.480011 0
1 0.75 0
1 0.5 0
2.7528e-12 1 0
-0.160156 0.628165 0
0.25 1 0
0.156784 0.679088 0
-0.160156 0.628165 0
-0.320312 0.25633 0
0.156784 0.679088 0
0.0635683 0.358176 0
0.25 1 0
0.156784 0.679088 0
0.5 1 0
0.473724 0.730011 0
0.156784 0.679088 0
0.0635683 0.358176 0
0.473724 0.730011 0
0.447449 0.460023 0
-0.320312 0.25633 0
-0.160156 0.128165 0
0.0635683 0.358176 0
0.156784 0.179088 0
-0.160156 0.128165 0
0 0 0
0.156784 0.179088 0
0.25 0 0
0.0635683 0.358176 0
0.156784 0.179088 0
0.447449 0.460023 0
0.473724 0.230011 0
0.156784 0.179088 0
0.25 0 0
0.473724 0.230011 0
0.5 0 0
-0.5 1 0
-0.563151 0.798922 0
-0.25 1 0
-0.361654 0.713543 0
-0.563151 0.798922 0
-0.626302 0.597843 0
-0.361654 0.713543 0
-0.473307 0.427086 0
-0.25 1 0
-0.361654 0.713543 0
2.7528e-12 1 0
-0.160156 0.628165 0
-0.361654 0.713543 0
-0.473307 0.427086 0
-0.160156 0.628165 0
-0.320312 0.25633 0
-1 1 0
-1 0.75 0
-0.75 1 0
-0.781576 0.774461 0
-1 0.75 0
-1 0.5 0
-0.781576 0.774461 0
-0.813151 0.548922 0
-0.75 1 0
-0.781576 0.774461 0
-0.5 1 0
-0.563151 0.798922 0
-0.781576 0.774461 0
-0.813151 0.548922 0
-0.563151 0.798922 0
-0.626302 0.597843 0
-1 0.5 0
-1 0.25 0
-0.813151 0.548922 0
-0.736654 0.338543 0
-1 0.25 0
-1 2.7528e-12 0
-0.736654 0.338543 0
-0.660156 0.128165 0
-0.813151 0.548922 0
-0.736654 0.338543 0
-0.626302 0.597843 0
-0.473307 0.427086 0
-0.736654 0.338543 0
-0.660156 0.128165 0
-0.473307 0.427086 0
-0.320312 0.25633 0
0.447449 0.460023 0
0.473724 0.230011 0
0.723724 0.480011 0
0.736862 0.240006 0
0.473724 0.230011 0
0.5 0 0
0.736862 0.240006 0
0.75 0 0
0.723724 0.480011 0
0.736862 0.240006 0
1 0.5 0
1 0.25 0
0.736862 0.240006 0
0.75 0 0
1 0.25 0
1 0 0
-1 2.7528e-12 0
-0.851561 -0.156576 0
-0.660156 0.128165 0
-0.618936 -0.0457852 0
-0.851561 -0.156576 0
-0.703123 -0.313151 0
-0.618936 -0.0457852 0
-0.577716 -0.219735 0
-0.660156 0.128165 0
-0.618936 -0.0457852 0
-0.320312 0.25633 0
-0.386311 0.0650051 0
-0.618936 -0.0457852 0
-0.577716 -0.219735 0
-0.386311 0.0650051 0
-0.45231 -0.126319 0

CELLS 38 190
4	0	1	3	2
4	4	5	7	6
4	8	9	11	10
4	12	13	15	14
4	16	17	19	18
4	20	21	23	22
4	24	25	27	26
4	28	29	31	30
4	32	33	35	34
4	36	37	39	38
4	40	41	43	42
4	44	45	47	46
4	48	49	51	50
4	52	53	55	54
4	56	57	59	58
4	60	61	63	62
4	64	65	67	66
4	68	69	71	70
4	72	73	75	74
4	76	77	79	78
4	80	81	83	82
4	84	85	87	86
4	88	89	91	90
4	92	93	95	94
4	96	97	99	98
4	100	101	103	102
4	104	105	107	106
4	108	109	111	110
4	112	113	115	114
4	116	117	119	118
4	120	121	123	122
4	124	125	127	126
4	128	129	131	130
4	132	133	135	134
4	136	137	139	138
4	140	141	143	142
4	144	145	147	146
4	148	149	151	150

CELL_TYPES 38
 9 9 9 9 9 9 9 9 9 9 9 9 9 9 9 9 9 9 9 9 9 9 9 9 9 9 9 9 9 9 9 9 9 9 9 9 9 9
POINT_DATA 152
SCALARS solution double 1
LOOKUP_TABLE default
0.129425 -3.29313e-06 0.234306 -2.38087e-06 0.278334 0.129425 0.587785 0.234306 2.91189e-12 -2.07267e-06 0.278334 0.129425 -2.07267e-06 -4.14534e-06 0.129425 -3.29313e-06 0.234306 -2.38087e-06 0.217219 -1.36745e-06 0.448795 0.217219 0 -1.36745e-06 0.846667 0.639344 0.807691 0.609911 0.639344 0.418255 0.609911 0.403297 0.807691 0.609911 0.775587 0.588589 0.609911 0.403297 0.588589 0.396312 0.951057 0.702077 0.894096 0.658726 0.702077 0.448795 0.658726 0.398749 0.894096 0.658726 0.846667 0.639344 0.658726 0.398749 0.639344 0.418255 0.448795 0.25899 0.398749 0.198159 0.25899 0 0.198159 0 0.398749 0.198159 0.418255 0.211554 0.198159 0 0.211554 0 1.0916 0.966479 1.0174 0.834737 0.966479 0.842098 0.834737 0.653609 1.0174 0.834737 0.951057 0.702077 0.834737 0.653609 0.702077 0.448795 1.25493 1.08777 1.17146 1.02535 1.08777 0.919581 1.02535 0.879097 1.17146 1.02535 1.0916 0.966479 1.02535 0.879097 0.966479 0.842098 0.919581 0.752092 0.879097 0.698654 0.752092 0.587785 0.698654 0.512733 0.879097 0.698654 0.842098 0.653609 0.698654 0.512733 0.653609 0.448795 0.418255 0.211554 0.403297 0.203204 0.211554 0 0.203204 0 0.403297 0.203204 0.396312 0.199511 0.203204 0 0.199511 0 0.587785 0.413676 0.512733 0.367889 0.413676 0.234306 0.367889 0.225277 0.512733 0.367889 0.448795 0.326601 0.367889 0.225277 0.326601 0.217219 
