# vtk DataFile Version 3.0
#This file was generated by the deal.II library on 2020/5/26 at 15:48:37
ASCII
DATASET UNSTRUCTURED_GRID

POINTS 92 double
-0.5 1 0
-0.626302 0.597843 0
2.7528e-12 1 0
-0.320312 0.25633 0
-1 1 0
-1 0.5 0
-0.5 1 0
-0.626302 0.597843 0
-1 0.5 0
-1 2.7528e-12 0
-0.626302 0.597843 0
-0.320312 0.25633 0
0.447449 0.460023 0
0.5 0 0
1 0.5 0
1 0 0
0.5 1 0
0.447449 0.460023 0
1 1 0
1 0.5 0
-0.867215 -0.635484 0
-0.749994 -0.75 0
-0.703123 -0.313151 0
-0.499996 -0.5 0
-1 -0.5 0
-0.867215 -0.635484 0
-1 2.7528e-12 0
-0.703123 -0.313151 0
-1 -1 0
-0.999996 -1 0
-1 -0.5 0
-0.867215 -0.635484 0
-0.999996 -1 0
-0.999992 -1 0
-0.867215 -0.635484 0
-0.749994 -0.75 0
-0.703123 -0.313151 0
-0.499996 -0.5 0
-0.45231 -0.126319 0
-0.249998 -0.25 0
-1 2.7528e-12 0
-0.703123 -0.313151 0
-0.320312 0.25633 0
-0.45231 -0.126319 0
2.7528e-12 1 0
-0.160156 0.628165 0
0.25 1 0
0.156784 0.679088 0
-0.160156 0.628165 0
-0.320312 0.25633 0
0.156784 0.679088 0
0.0635683 0.358176 0
0.25 1 0
0.156784 0.679088 0
0.5 1 0
0.473724 0.730011 0
0.156784 0.679088 0
0.0635683 0.358176 0
0.473724 0.730011 0
0.447449 0.460023 0
-0.320312 0.25633 0
-0.160156 0.128165 0
0.0635683 0.358176 0
0.156784 0.179088 0
-0.160156 0.128165 0
0 0 0
0.156784 0.179088 0
0.25 0 0
0.0635683 0.358176 0
0.156784 0.179088 0
0.447449 0.460023 0
0.473724 0.230011 0
0.156784 0.179088 0
0.25 0 0
0.473724 0.230011 0
0.5 0 0
-0.320312 0.25633 0
-0.386311 0.0650051 0
-0.160156 0.128165 0
-0.255655 -0.0299975 0
-0.386311 0.0650051 0
-0.45231 -0.126319 0
-0.255655 -0.0299975 0
-0.351154 -0.18816 0
-0.160156 0.128165 0
-0.255655 -0.0299975 0
0 0 0
-0.124999 -0.125 0
-0.255655 -0.0299975 0
-0.351154 -0.18816 0
-0.124999 -0.125 0
-0.249998 -0.25 0

CELLS 23 115
4	0	1	3	2
4	4	5	7	6
4	8	9	11	10
4	12	13	15	14
4	16	17	19	18
4	20	21	23	22
4	24	25	27	26
4	28	29	31	30
4	32	33	35	34
4	36	37	39	38
4	40	41	43	42
4	44	45	47	46
4	48	49	51	50
4	52	53	55	54
4	56	57	59	58
4	60	61	63	62
4	64	65	67	66
4	68	69	71	70
4	72	73	75	74
4	76	77	79	78
4	80	81	83	82
4	84	85	87	86
4	88	89	91	90

CELL_TYPES 23
 9 9 9 9 9 9 9 9 9 9 9 9 9 9 9 9 9 9 9 9 9 9 9
POINT_DATA 92
SCALARS solution double 1
LOOKUP_TABLE default
1.0916 0.842203 0.951057 0.449603 1.25493 0.919581 1.0916 0.842203 0.919581 0.587785 0.842203 0.449603 0.418472 0 0.396312 0 0.846667 0.418472 0.775587 0.396312 0.129417 -3.29313e-06 0.234225 -2.38087e-06 0.278334 0.129417 0.587785 0.234225 2.91189e-12 -2.07267e-06 0.278334 0.129417 -2.07267e-06 -4.14534e-06 0.129417 -3.29313e-06 0.234225 -2.38087e-06 0.217822 -1.36745e-06 0.587785 0.234225 0.449603 0.217822 0.951057 0.701824 0.894096 0.658628 0.701824 0.449603 0.658628 0.399457 0.894096 0.658628 0.846667 0.639392 0.658628 0.399457 0.639392 0.418472 0.449603 0.257394 0.399457 0.198128 0.257394 0 0.198128 0 0.399457 0.198128 0.418472 0.211682 0.198128 0 0.211682 0 0.449603 0.326014 0.257394 0.171554 0.326014 0.217822 0.171554 0.111335 0.257394 0.171554 0 -7.85395e-07 0.171554 0.111335 -7.85395e-07 -1.36745e-06 
