# vtk DataFile Version 3.0
#This file was generated by the deal.II library on 2020/5/26 at 15:48:37
ASCII
DATASET UNSTRUCTURED_GRID

POINTS 272 double
-1 1 0
-1 0.5 0
-0.5 1 0
-0.626302 0.597843 0
0.5 1 0
0.447449 0.460023 0
1 1 0
1 0.5 0
-0.867215 -0.635484 0
-0.749994 -0.75 0
-0.703123 -0.313151 0
-0.499996 -0.5 0
-1 -0.5 0
-0.867215 -0.635484 0
-1 2.7528e-12 0
-0.703123 -0.313151 0
-1 -1 0
-0.999996 -1 0
-1 -0.5 0
-0.867215 -0.635484 0
-0.999996 -1 0
-0.999992 -1 0
-0.867215 -0.635484 0
-0.749994 -0.75 0
-0.703123 -0.313151 0
-0.499996 -0.5 0
-0.45231 -0.126319 0
-0.249998 -0.25 0
2.7528e-12 1 0
-0.160156 0.628165 0
0.25 1 0
0.156784 0.679088 0
0.25 1 0
0.156784 0.679088 0
0.5 1 0
0.473724 0.730011 0
0.156784 0.679088 0
0.0635683 0.358176 0
0.473724 0.730011 0
0.447449 0.460023 0
0.0635683 0.358176 0
0.156784 0.179088 0
0.447449 0.460023 0
0.473724 0.230011 0
-0.320312 0.25633 0
-0.386311 0.0650051 0
-0.160156 0.128165 0
-0.255655 -0.0299975 0
-0.386311 0.0650051 0
-0.45231 -0.126319 0
-0.255655 -0.0299975 0
-0.351154 -0.18816 0
-0.255655 -0.0299975 0
-0.351154 -0.18816 0
-0.124999 -0.125 0
-0.249998 -0.25 0
-0.5 1 0
-0.563151 0.798922 0
-0.25 1 0
-0.361654 0.713543 0
-0.563151 0.798922 0
-0.626302 0.597843 0
-0.361654 0.713543 0
-0.473307 0.427086 0
-0.25 1 0
-0.361654 0.713543 0
2.7528e-12 1 0
-0.160156 0.628165 0
0.447449 0.460023 0
0.473724 0.230011 0
0.723724 0.480011 0
0.736862 0.240006 0
0.473724 0.230011 0
0.5 0 0
0.736862 0.240006 0
0.75 0 0
0.723724 0.480011 0
0.736862 0.240006 0
1 0.5 0
1 0.25 0
0.736862 0.240006 0
0.75 0 0
1 0.25 0
1 0 0
-1 0.5 0
-1 0.25 0
-0.813151 0.548922 0
-0.736654 0.338543 0
-1 0.25 0
-1 2.7528e-12 0
-0.736654 0.338543 0
-0.660156 0.128165 0
-0.813151 0.548922 0
-0.736654 0.338543 0
-0.626302 0.597843 0
-0.473307 0.427086 0
-0.736654 0.338543 0
-0.660156 0.128165 0
-0.473307 0.427086 0
-0.320312 0.25633 0
-1 2.7528e-12 0
-0.851561 -0.156576 0
-0.660156 0.128165 0
-0.618936 -0.0457852 0
-0.851561 -0.156576 0
-0.703123 -0.313151 0
-0.618936 -0.0457852 0
-0.577716 -0.219735 0
-0.660156 0.128165 0
-0.618936 -0.0457852 0
-0.320312 0.25633 0
-0.386311 0.0650051 0
-0.618936 -0.0457852 0
-0.577716 -0.219735 0
-0.386311 0.0650051 0
-0.45231 -0.126319 0
-0.320312 0.25633 0
-0.240234 0.192247 0
-0.128372 0.307253 0
-0.0650289 0.23044 0
-0.240234 0.192247 0
-0.160156 0.128165 0
-0.0650289 0.23044 0
-0.00168594 0.153626 0
-0.128372 0.307253 0
-0.0650289 0.23044 0
0.0635683 0.358176 0
0.110176 0.268632 0
-0.0650289 0.23044 0
-0.00168594 0.153626 0
0.110176 0.268632 0
0.156784 0.179088 0
0.156784 0.179088 0
0.203392 0.089544 0
0.315254 0.20455 0
0.345127 0.102275 0
0.203392 0.089544 0
0.25 0 0
0.345127 0.102275 0
0.375 0 0
0.315254 0.20455 0
0.345127 0.102275 0
0.473724 0.230011 0
0.486862 0.115006 0
0.345127 0.102275 0
0.375 0 0
0.486862 0.115006 0
0.5 0 0
-0.160156 0.128165 0
-0.207906 0.0490837 0
-0.080078 0.0640824 0
-0.135203 -0.00670817 0
-0.207906 0.0490837 0
-0.255655 -0.0299975 0
-0.135203 -0.00670817 0
-0.190327 -0.0774987 0
-0.135203 -0.00670817 0
-0.190327 -0.0774987 0
-0.0624995 -0.0625 0
-0.124999 -0.125 0
-0.160156 0.628165 0
-0.240234 0.442247 0
-0.00168594 0.653626 0
-0.0650289 0.48044 0
-0.240234 0.442247 0
-0.320312 0.25633 0
-0.0650289 0.48044 0
-0.128372 0.307253 0
-0.00168594 0.653626 0
-0.0650289 0.48044 0
0.156784 0.679088 0
0.110176 0.518632 0
-0.0650289 0.48044 0
-0.128372 0.307253 0
0.110176 0.518632 0
0.0635683 0.358176 0
-0.361654 0.713543 0
-0.41748 0.570315 0
-0.260905 0.670854 0
-0.328857 0.506281 0
-0.41748 0.570315 0
-0.473307 0.427086 0
-0.328857 0.506281 0
-0.39681 0.341708 0
-0.260905 0.670854 0
-0.328857 0.506281 0
-0.160156 0.628165 0
-0.240234 0.442247 0
-0.328857 0.506281 0
-0.39681 0.341708 0
-0.240234 0.442247 0
-0.320312 0.25633 0
-0.160156 0.128165 0
-0.120117 0.0961236 0
-0.080921 0.140896 0
-0.0450657 0.105672 0
-0.120117 0.0961236 0
-0.080078 0.0640824 0
-0.0450657 0.105672 0
-0.0092105 0.0704478 0
-0.080921 0.140896 0
-0.0450657 0.105672 0
-0.00168594 0.153626 0
0.0299855 0.11522 0
-0.0450657 0.105672 0
-0.0092105 0.0704478 0
0.0299855 0.11522 0
0.061657 0.0768132 0
-0.080078 0.0640824 0
-0.040039 0.0320412 0
-0.0092105 0.0704478 0
0.0266448 0.0352239 0
-0.040039 0.0320412 0
0 0 0
0.0266448 0.0352239 0
0.0625 0 0
-0.0092105 0.0704478 0
0.0266448 0.0352239 0
0.061657 0.0768132 0
0.0933285 0.0384066 0
0.0266448 0.0352239 0
0.0625 0 0
0.0933285 0.0384066 0
0.125 0 0
-0.00168594 0.153626 0
0.0299855 0.11522 0
0.0775491 0.166357 0
0.105037 0.124768 0
0.0299855 0.11522 0
0.061657 0.0768132 0
0.105037 0.124768 0
0.132525 0.0831786 0
0.0775491 0.166357 0
0.105037 0.124768 0
0.156784 0.179088 0
0.180088 0.134316 0
0.105037 0.124768 0
0.132525 0.0831786 0
0.180088 0.134316 0
0.203392 0.089544 0
0.061657 0.0768132 0
0.0933285 0.0384066 0
0.132525 0.0831786 0
0.160012 0.0415893 0
0.0933285 0.0384066 0
0.125 0 0
0.160012 0.0415893 0
0.1875 0 0
0.132525 0.0831786 0
0.160012 0.0415893 0
0.203392 0.089544 0
0.226696 0.044772 0
0.160012 0.0415893 0
0.1875 0 0
0.226696 0.044772 0
0.25 0 0
-0.080078 0.0640824 0
-0.10764 0.0286871 0
-0.040039 0.0320412 0
-0.069445 -0.00128144 0
-0.10764 0.0286871 0
-0.135203 -0.00670817 0
-0.069445 -0.00128144 0
-0.098851 -0.0346041 0
-0.040039 0.0320412 0
-0.069445 -0.00128144 0
0 0 0
-0.0312498 -0.03125 0
-0.069445 -0.00128144 0
-0.098851 -0.0346041 0
-0.0312498 -0.03125 0
-0.0624995 -0.0625 0

CELLS 68 340
4	0	1	3	2
4	4	5	7	6
4	8	9	11	10
4	12	13	15	14
4	16	17	19	18
4	20	21	23	22
4	24	25	27	26
4	28	29	31	30
4	32	33	35	34
4	36	37	39	38
4	40	41	43	42
4	44	45	47	46
4	48	49	51	50
4	52	53	55	54
4	56	57	59	58
4	60	61	63	62
4	64	65	67	66
4	68	69	71	70
4	72	73	75	74
4	76	77	79	78
4	80	81	83	82
4	84	85	87	86
4	88	89	91	90
4	92	93	95	94
4	96	97	99	98
4	100	101	103	102
4	104	105	107	106
4	108	109	111	110
4	112	113	115	114
4	116	117	119	118
4	120	121	123	122
4	124	125	127	126
4	128	129	131	130
4	132	133	135	134
4	136	137	139	138
4	140	141	143	142
4	144	145	147	146
4	148	149	151	150
4	152	153	155	154
4	156	157	159	158
4	160	161	163	162
4	164	165	167	166
4	168	169	171	170
4	172	173	175	174
4	176	177	179	178
4	180	181	183	182
4	184	185	187	186
4	188	189	191	190
4	192	193	195	194
4	196	197	199	198
4	200	201	203	202
4	204	205	207	206
4	208	209	211	210
4	212	213	215	214
4	216	217	219	218
4	220	221	223	222
4	224	225	227	226
4	228	229	231	230
4	232	233	235	234
4	236	237	239	238
4	240	241	243	242
4	244	245	247	246
4	248	249	251	250
4	252	253	255	254
4	256	257	259	258
4	260	261	263	262
4	264	265	267	266
4	268	269	271	270

CELL_TYPES 68
 9 9 9 9 9 9 9 9 9 9 9 9 9 9 9 9 9 9 9 9 9 9 9 9 9 9 9 9 9 9 9 9 9 9 9 9 9 9 9 9 9 9 9 9 9 9 9 9 9 9 9 9 9 9 9 9 9 9 9 9 9 9 9 9 9 9 9 9
POINT_DATA 272
SCALARS solution double 1
LOOKUP_TABLE default
1.25493 0.919581 1.0916 0.842248 0.846667 0.418479 0.775587 0.396312 0.129429 -3.29313e-06 0.234366 -2.38087e-06 0.278334 0.129429 0.587785 0.234366 2.91189e-12 -2.07267e-06 0.278334 0.129429 -2.07267e-06 -4.14534e-06 0.129429 -3.29313e-06 0.234366 -2.38087e-06 0.217934 -1.36745e-06 0.951057 0.702299 0.894096 0.658944 0.894096 0.658944 0.846667 0.639483 0.658944 0.399933 0.639483 0.418479 0.399933 0.199728 0.418479 0.211858 0.450908 0.326108 0.258961 0.172101 0.326108 0.217934 0.172101 0.111394 0.172101 0.111394 -7.85395e-07 -1.36745e-06 1.0916 0.966551 1.0174 0.834925 0.966551 0.842248 0.834925 0.653986 1.0174 0.834925 0.951057 0.702299 0.418479 0.211858 0.403331 0.203266 0.211858 0 0.203266 0 0.403331 0.203266 0.396312 0.199511 0.203266 0 0.199511 0 0.919581 0.752092 0.879156 0.698796 0.752092 0.587785 0.698796 0.512908 0.879156 0.698796 0.842248 0.653986 0.698796 0.512908 0.653986 0.450908 0.587785 0.4137 0.512908 0.36798 0.4137 0.234366 0.36798 0.225345 0.512908 0.36798 0.450908 0.326108 0.36798 0.225345 0.326108 0.217934 0.450908 0.358288 0.414806 0.31717 0.358288 0.258961 0.31717 0.212855 0.414806 0.31717 0.399933 0.301273 0.31717 0.212855 0.301273 0.199728 0.199728 0.0978121 0.203003 0.100847 0.0978121 0 0.100847 0 0.203003 0.100847 0.211858 0.105976 0.100847 0 0.105976 0 0.258961 0.211392 0.148623 0.112045 0.211392 0.172101 0.112045 0.0883661 0.112045 0.0883661 -4.51091e-07 -7.85395e-07 0.702299 0.575265 0.677309 0.548402 0.575265 0.450908 0.548402 0.414806 0.677309 0.548402 0.658944 0.533487 0.548402 0.414806 0.533487 0.399933 0.834925 0.743742 0.768569 0.660626 0.743742 0.653986 0.660626 0.554843 0.768569 0.660626 0.702299 0.575265 0.660626 0.554843 0.575265 0.450908 0.258961 0.205638 0.232381 0.176981 0.205638 0.148623 0.176981 0.11775 0.232381 0.176981 0.212855 0.158225 0.176981 0.11775 0.158225 0.102566 0.148623 0.0849819 0.11775 0.0547248 0.0849819 0 0.0547248 0 0.11775 0.0547248 0.102566 0.0490294 0.0547248 0 0.0490294 0 0.212855 0.158225 0.202927 0.150341 0.158225 0.102566 0.150341 0.0982639 0.202927 0.150341 0.199728 0.148581 0.150341 0.0982639 0.148581 0.0978121 0.102566 0.0490294 0.0982639 0.0478735 0.0490294 0 0.0478735 0 0.0982639 0.0478735 0.0978121 0.0481354 0.0478735 0 0.0481354 0 0.148623 0.128134 0.0849819 0.0679641 0.128134 0.112045 0.0679641 0.0576672 0.0849819 0.0679641 0 -2.59084e-07 0.0679641 0.0576672 -2.59084e-07 -4.51091e-07 
