# vtk DataFile Version 3.0
#This file was generated by the deal.II library on 2020/5/26 at 15:48:37
ASCII
DATASET UNSTRUCTURED_GRID

POINTS 92 double
-0.5 1 0
-0.626302 0.597843 0
2.7528e-12 1 0
-0.320312 0.25633 0
-1 1 0
-1 0.5 0
-0.5 1 0
-0.626302 0.597843 0
-1 0.5 0
-1 2.7528e-12 0
-0.626302 0.597843 0
-0.320312 0.25633 0
0.447449 0.460023 0
0.5 0 0
1 0.5 0
1 0 0
-0.867215 -0.635484 0
-0.749994 -0.75 0
-0.703123 -0.313151 0
-0.499996 -0.5 0
-1 -0.5 0
-0.867215 -0.635484 0
-1 2.7528e-12 0
-0.703123 -0.313151 0
-1 -1 0
-0.999996 -1 0
-1 -0.5 0
-0.867215 -0.635484 0
-0.999996 -1 0
-0.999992 -1 0
-0.867215 -0.635484 0
-0.749994 -0.75 0
-0.703123 -0.313151 0
-0.499996 -0.5 0
-0.45231 -0.126319 0
-0.249998 -0.25 0
-0.320312 0.25633 0
-0.45231 -0.126319 0
0 0 0
-0.249998 -0.25 0
-1 2.7528e-12 0
-0.703123 -0.313151 0
-0.320312 0.25633 0
-0.45231 -0.126319 0
0.5 1 0
0.473724 0.730011 0
0.75 1 0
0.736862 0.740006 0
0.473724 0.730011 0
0.447449 0.460023 0
0.736862 0.740006 0
0.723724 0.480011 0
0.75 1 0
0.736862 0.740006 0
1 1 0
1 0.75 0
0.736862 0.740006 0
0.723724 0.480011 0
1 0.75 0
1 0.5 0
2.7528e-12 1 0
-0.160156 0.628165 0
0.25 1 0
0.156784 0.679088 0
-0.160156 0.628165 0
-0.320312 0.25633 0
0.156784 0.679088 0
0.0635683 0.358176 0
0.25 1 0
0.156784 0.679088 0
0.5 1 0
0.473724 0.730011 0
0.156784 0.679088 0
0.0635683 0.358176 0
0.473724 0.730011 0
0.447449 0.460023 0
-0.320312 0.25633 0
-0.160156 0.128165 0
0.0635683 0.358176 0
0.156784 0.179088 0
-0.160156 0.128165 0
0 0 0
0.156784 0.179088 0
0.25 0 0
0.0635683 0.358176 0
0.156784 0.179088 0
0.447449 0.460023 0
0.473724 0.230011 0
0.156784 0.179088 0
0.25 0 0
0.473724 0.230011 0
0.5 0 0

CELLS 23 115
4	0	1	3	2
4	4	5	7	6
4	8	9	11	10
4	12	13	15	14
4	16	17	19	18
4	20	21	23	22
4	24	25	27	26
4	28	29	31	30
4	32	33	35	34
4	36	37	39	38
4	40	41	43	42
4	44	45	47	46
4	48	49	51	50
4	52	53	55	54
4	56	57	59	58
4	60	61	63	62
4	64	65	67	66
4	68	69	71	70
4	72	73	75	74
4	76	77	79	78
4	80	81	83	82
4	84	85	87	86
4	88	89	91	90

CELL_TYPES 23
 9 9 9 9 9 9 9 9 9 9 9 9 9 9 9 9 9 9 9 9 9 9 9
POINT_DATA 92
SCALARS solution double 1
LOOKUP_TABLE default
1.0916 0.84208 0.951057 0.448315 1.25493 0.919581 1.0916 0.84208 0.919581 0.587785 0.84208 0.448315 0.41824 0 0.396312 0 0.129418 -3.29313e-06 0.234214 -2.38087e-06 0.278334 0.129418 0.587785 0.234214 2.91189e-12 -2.07267e-06 0.278334 0.129418 -2.07267e-06 -4.14534e-06 0.129418 -3.29313e-06 0.234214 -2.38087e-06 0.217485 -1.36745e-06 0.448315 0.217485 0 -1.36745e-06 0.587785 0.234214 0.448315 0.217485 0.846667 0.639329 0.807691 0.609897 0.639329 0.41824 0.609897 0.403251 0.807691 0.609897 0.775587 0.588589 0.609897 0.403251 0.588589 0.396312 0.951057 0.701944 0.894096 0.658588 0.701944 0.448315 0.658588 0.39874 0.894096 0.658588 0.846667 0.639329 0.658588 0.39874 0.639329 0.41824 0.448315 0.258994 0.39874 0.19817 0.258994 0 0.19817 0 0.39874 0.19817 0.41824 0.211568 0.19817 0 0.211568 0 
