# vtk DataFile Version 3.0
#This file was generated by the deal.II library on 2020/5/26 at 15:48:35
ASCII
DATASET UNSTRUCTURED_GRID

POINTS 56 double
-0.5 1 0
-0.626302 0.597843 0
2.7528e-12 1 0
-0.320312 0.25633 0
-1 1 0
-1 0.5 0
-0.5 1 0
-0.626302 0.597843 0
-1 0.5 0
-1 2.7528e-12 0
-0.626302 0.597843 0
-0.320312 0.25633 0
0.447449 0.460023 0
0.5 0 0
1 0.5 0
1 0 0
0.5 1 0
0.447449 0.460023 0
1 1 0
1 0.5 0
2.7528e-12 1 0
-0.320312 0.25633 0
0.5 1 0
0.447449 0.460023 0
-0.320312 0.25633 0
0 0 0
0.447449 0.460023 0
0.5 0 0
-0.867215 -0.635484 0
-0.749994 -0.75 0
-0.703123 -0.313151 0
-0.499996 -0.5 0
-1 -0.5 0
-0.867215 -0.635484 0
-1 2.7528e-12 0
-0.703123 -0.313151 0
-1 -1 0
-0.999996 -1 0
-1 -0.5 0
-0.867215 -0.635484 0
-0.999996 -1 0
-0.999992 -1 0
-0.867215 -0.635484 0
-0.749994 -0.75 0
-0.703123 -0.313151 0
-0.499996 -0.5 0
-0.45231 -0.126319 0
-0.249998 -0.25 0
-0.320312 0.25633 0
-0.45231 -0.126319 0
0 0 0
-0.249998 -0.25 0
-1 2.7528e-12 0
-0.703123 -0.313151 0
-0.320312 0.25633 0
-0.45231 -0.126319 0

CELLS 14 70
4	0	1	3	2
4	4	5	7	6
4	8	9	11	10
4	12	13	15	14
4	16	17	19	18
4	20	21	23	22
4	24	25	27	26
4	28	29	31	30
4	32	33	35	34
4	36	37	39	38
4	40	41	43	42
4	44	45	47	46
4	48	49	51	50
4	52	53	55	54

CELL_TYPES 14
 9 9 9 9 9 9 9 9 9 9 9 9 9 9
POINT_DATA 56
SCALARS solution double 1
LOOKUP_TABLE default
1.0916 0.84189 0.951057 0.447239 1.25493 0.919581 1.0916 0.84189 0.919581 0.587785 0.84189 0.447239 0.417246 0 0.396312 0 0.846667 0.417246 0.775587 0.396312 0.951057 0.447239 0.846667 0.417246 0.447239 0 0.417246 0 0.129408 -3.29313e-06 0.234085 -2.38087e-06 0.278334 0.129408 0.587785 0.234085 2.91189e-12 -2.07267e-06 0.278334 0.129408 -2.07267e-06 -4.14534e-06 0.129408 -3.29313e-06 0.234085 -2.38087e-06 0.217025 -1.36745e-06 0.447239 0.217025 0 -1.36745e-06 0.587785 0.234085 0.447239 0.217025 
