# vtk DataFile Version 3.0
#This file was generated by the deal.II library on 2020/5/26 at 15:48:36
ASCII
DATASET UNSTRUCTURED_GRID

POINTS 3584 double
-0.5 1 0
-0.515788 0.94973 0
-0.4375 1 0
-0.456319 0.944394 0
-0.515788 0.94973 0
-0.531576 0.899461 0
-0.456319 0.944394 0
-0.475138 0.888788 0
-0.4375 1 0
-0.456319 0.944394 0
-0.375 1 0
-0.396851 0.939058 0
-0.456319 0.944394 0
-0.475138 0.888788 0
-0.396851 0.939058 0
-0.418701 0.878116 0
-0.531576 0.899461 0
-0.547363 0.849191 0
-0.475138 0.888788 0
-0.493957 0.833183 0
-0.547363 0.849191 0
-0.563151 0.798922 0
-0.493957 0.833183 0
-0.512777 0.777577 0
-0.475138 0.888788 0
-0.493957 0.833183 0
-0.418701 0.878116 0
-0.440552 0.817174 0
-0.493957 0.833183 0
-0.512777 0.777577 0
-0.440552 0.817174 0
-0.462402 0.756232 0
-0.375 1 0
-0.396851 0.939058 0
-0.3125 1 0
-0.337382 0.933722 0
-0.396851 0.939058 0
-0.418701 0.878116 0
-0.337382 0.933722 0
-0.362264 0.867444 0
-0.3125 1 0
-0.337382 0.933722 0
-0.25 1 0
-0.277913 0.928386 0
-0.337382 0.933722 0
-0.362264 0.867444 0
-0.277913 0.928386 0
-0.305827 0.856772 0
-0.418701 0.878116 0
-0.440552 0.817174 0
-0.362264 0.867444 0
-0.387146 0.801166 0
-0.440552 0.817174 0
-0.462402 0.756232 0
-0.387146 0.801166 0
-0.412028 0.734888 0
-0.362264 0.867444 0
-0.387146 0.801166 0
-0.305827 0.856772 0
-0.33374 0.785157 0
-0.387146 0.801166 0
-0.412028 0.734888 0
-0.33374 0.785157 0
-0.361654 0.713543 0
-0.563151 0.798922 0
-0.578939 0.748652 0
-0.512777 0.777577 0
-0.531596 0.721971 0
-0.578939 0.748652 0
-0.594727 0.698382 0
-0.531596 0.721971 0
-0.550415 0.666365 0
-0.512777 0.777577 0
-0.531596 0.721971 0
-0.462402 0.756232 0
-0.484253 0.69529 0
-0.531596 0.721971 0
-0.550415 0.666365 0
-0.484253 0.69529 0
-0.506103 0.634349 0
-0.594727 0.698382 0
-0.610514 0.648113 0
-0.550415 0.666365 0
-0.569234 0.61076 0
-0.610514 0.648113 0
-0.626302 0.597843 0
-0.569234 0.61076 0
-0.588053 0.555154 0
-0.550415 0.666365 0
-0.569234 0.61076 0
-0.506103 0.634349 0
-0.527954 0.573407 0
-0.569234 0.61076 0
-0.588053 0.555154 0
-0.527954 0.573407 0
-0.549805 0.512465 0
-0.462402 0.756232 0
-0.484253 0.69529 0
-0.412028 0.734888 0
-0.43691 0.66861 0
-0.484253 0.69529 0
-0.506103 0.634349 0
-0.43691 0.66861 0
-0.461792 0.602332 0
-0.412028 0.734888 0
-0.43691 0.66861 0
-0.361654 0.713543 0
-0.389567 0.641929 0
-0.43691 0.66861 0
-0.461792 0.602332 0
-0.389567 0.641929 0
-0.41748 0.570315 0
-0.506103 0.634349 0
-0.527954 0.573407 0
-0.461792 0.602332 0
-0.486674 0.536054 0
-0.527954 0.573407 0
-0.549805 0.512465 0
-0.486674 0.536054 0
-0.511556 0.469776 0
-0.461792 0.602332 0
-0.486674 0.536054 0
-0.41748 0.570315 0
-0.445394 0.498701 0
-0.486674 0.536054 0
-0.511556 0.469776 0
-0.445394 0.498701 0
-0.473307 0.427086 0
-0.25 1 0
-0.277913 0.928386 0
-0.1875 1 0
-0.218445 0.92305 0
-0.277913 0.928386 0
-0.305827 0.856772 0
-0.218445 0.92305 0
-0.24939 0.846099 0
-0.1875 1 0
-0.218445 0.92305 0
-0.125 1 0
-0.158976 0.917713 0
-0.218445 0.92305 0
-0.24939 0.846099 0
-0.158976 0.917713 0
-0.192952 0.835427 0
-0.305827 0.856772 0
-0.33374 0.785157 0
-0.24939 0.846099 0
-0.280334 0.769149 0
-0.33374 0.785157 0
-0.361654 0.713543 0
-0.280334 0.769149 0
-0.311279 0.692199 0
-0.24939 0.846099 0
-0.280334 0.769149 0
-0.192952 0.835427 0
-0.226929 0.75314 0
-0.280334 0.769149 0
-0.311279 0.692199 0
-0.226929 0.75314 0
-0.260905 0.670854 0
-0.125 1 0
-0.158976 0.917713 0
-0.0625 1 0
-0.0995076 0.912377 0
-0.158976 0.917713 0
-0.192952 0.835427 0
-0.0995076 0.912377 0
-0.136515 0.824755 0
-0.0625 1 0
-0.0995076 0.912377 0
2.7528e-12 1 0
-0.040039 0.907041 0
-0.0995076 0.912377 0
-0.136515 0.824755 0
-0.040039 0.907041 0
-0.080078 0.814082 0
-0.192952 0.835427 0
-0.226929 0.75314 0
-0.136515 0.824755 0
-0.173523 0.737132 0
-0.226929 0.75314 0
-0.260905 0.670854 0
-0.173523 0.737132 0
-0.21053 0.649509 0
-0.136515 0.824755 0
-0.173523 0.737132 0
-0.080078 0.814082 0
-0.120117 0.721124 0
-0.173523 0.737132 0
-0.21053 0.649509 0
-0.120117 0.721124 0
-0.160156 0.628165 0
-0.361654 0.713543 0
-0.389567 0.641929 0
-0.311279 0.692199 0
-0.342224 0.615248 0
-0.389567 0.641929 0
-0.41748 0.570315 0
-0.342224 0.615248 0
-0.373169 0.538298 0
-0.311279 0.692199 0
-0.342224 0.615248 0
-0.260905 0.670854 0
-0.294881 0.588567 0
-0.342224 0.615248 0
-0.373169 0.538298 0
-0.294881 0.588567 0
-0.328857 0.506281 0
-0.41748 0.570315 0
-0.445394 0.498701 0
-0.373169 0.538298 0
-0.404114 0.461348 0
-0.445394 0.498701 0
-0.473307 0.427086 0
-0.404114 0.461348 0
-0.435058 0.384397 0
-0.373169 0.538298 0
-0.404114 0.461348 0
-0.328857 0.506281 0
-0.362833 0.423994 0
-0.404114 0.461348 0
-0.435058 0.384397 0
-0.362833 0.423994 0
-0.39681 0.341708 0
-0.260905 0.670854 0
-0.294881 0.588567 0
-0.21053 0.649509 0
-0.247538 0.561887 0
-0.294881 0.588567 0
-0.328857 0.506281 0
-0.247538 0.561887 0
-0.284546 0.474264 0
-0.21053 0.649509 0
-0.247538 0.561887 0
-0.160156 0.628165 0
-0.200195 0.535206 0
-0.247538 0.561887 0
-0.284546 0.474264 0
-0.200195 0.535206 0
-0.240234 0.442247 0
-0.328857 0.506281 0
-0.362833 0.423994 0
-0.284546 0.474264 0
-0.321553 0.386641 0
-0.362833 0.423994 0
-0.39681 0.341708 0
-0.321553 0.386641 0
-0.358561 0.299019 0
-0.284546 0.474264 0
-0.321553 0.386641 0
-0.240234 0.442247 0
-0.280273 0.349288 0
-0.321553 0.386641 0
-0.358561 0.299019 0
-0.280273 0.349288 0
-0.320312 0.25633 0
-1 1 0
-1 0.9375 0
-0.9375 1 0
-0.939473 0.939029 0
-1 0.9375 0
-1 0.875 0
-0.939473 0.939029 0
-0.941447 0.878058 0
-0.9375 1 0
-0.939473 0.939029 0
-0.875 1 0
-0.878947 0.940558 0
-0.939473 0.939029 0
-0.941447 0.878058 0
-0.878947 0.940558 0
-0.882894 0.881115 0
-1 0.875 0
-1 0.8125 0
-0.941447 0.878058 0
-0.94342 0.817086 0
-1 0.8125 0
-1 0.75 0
-0.94342 0.817086 0
-0.945394 0.756115 0
-0.941447 0.878058 0
-0.94342 0.817086 0
-0.882894 0.881115 0
-0.886841 0.821673 0
-0.94342 0.817086 0
-0.945394 0.756115 0
-0.886841 0.821673 0
-0.890788 0.76223 0
-0.875 1 0
-0.878947 0.940558 0
-0.8125 1 0
-0.81842 0.942086 0
-0.878947 0.940558 0
-0.882894 0.881115 0
-0.81842 0.942086 0
-0.824341 0.884173 0
-0.8125 1 0
-0.81842 0.942086 0
-0.75 1 0
-0.757894 0.943615 0
-0.81842 0.942086 0
-0.824341 0.884173 0
-0.757894 0.943615 0
-0.765788 0.88723 0
-0.882894 0.881115 0
-0.886841 0.821673 0
-0.824341 0.884173 0
-0.830261 0.826259 0
-0.886841 0.821673 0
-0.890788 0.76223 0
-0.830261 0.826259 0
-0.836182 0.768346 0
-0.824341 0.884173 0
-0.830261 0.826259 0
-0.765788 0.88723 0
-0.773682 0.830846 0
-0.830261 0.826259 0
-0.836182 0.768346 0
-0.773682 0.830846 0
-0.781576 0.774461 0
-1 0.75 0
-1 0.6875 0
-0.945394 0.756115 0
-0.947367 0.695144 0
-1 0.6875 0
-1 0.625 0
-0.947367 0.695144 0
-0.949341 0.634173 0
-0.945394 0.756115 0
-0.947367 0.695144 0
-0.890788 0.76223 0
-0.894735 0.702788 0
-0.947367 0.695144 0
-0.949341 0.634173 0
-0.894735 0.702788 0
-0.898682 0.643346 0
-1 0.625 0
-1 0.5625 0
-0.949341 0.634173 0
-0.951314 0.573202 0
-1 0.5625 0
-1 0.5 0
-0.951314 0.573202 0
-0.953288 0.51223 0
-0.949341 0.634173 0
-0.951314 0.573202 0
-0.898682 0.643346 0
-0.902629 0.583903 0
-0.951314 0.573202 0
-0.953288 0.51223 0
-0.902629 0.583903 0
-0.906576 0.524461 0
-0.890788 0.76223 0
-0.894735 0.702788 0
-0.836182 0.768346 0
-0.842102 0.710432 0
-0.894735 0.702788 0
-0.898682 0.643346 0
-0.842102 0.710432 0
-0.848022 0.652518 0
-0.836182 0.768346 0
-0.842102 0.710432 0
-0.781576 0.774461 0
-0.789469 0.718076 0
-0.842102 0.710432 0
-0.848022 0.652518 0
-0.789469 0.718076 0
-0.797363 0.661691 0
-0.898682 0.643346 0
-0.902629 0.583903 0
-0.848022 0.652518 0
-0.853943 0.594605 0
-0.902629 0.583903 0
-0.906576 0.524461 0
-0.853943 0.594605 0
-0.859863 0.536691 0
-0.848022 0.652518 0
-0.853943 0.594605 0
-0.797363 0.661691 0
-0.805257 0.605306 0
-0.853943 0.594605 0
-0.859863 0.536691 0
-0.805257 0.605306 0
-0.813151 0.548922 0
-0.75 1 0
-0.757894 0.943615 0
-0.6875 1 0
-0.697367 0.945144 0
-0.757894 0.943615 0
-0.765788 0.88723 0
-0.697367 0.945144 0
-0.707235 0.890288 0
-0.6875 1 0
-0.697367 0.945144 0
-0.625 1 0
-0.636841 0.946673 0
-0.697367 0.945144 0
-0.707235 0.890288 0
-0.636841 0.946673 0
-0.648682 0.893346 0
-0.765788 0.88723 0
-0.773682 0.830846 0
-0.707235 0.890288 0
-0.717102 0.835432 0
-0.773682 0.830846 0
-0.781576 0.774461 0
-0.717102 0.835432 0
-0.726969 0.780576 0
-0.707235 0.890288 0
-0.717102 0.835432 0
-0.648682 0.893346 0
-0.660522 0.840018 0
-0.717102 0.835432 0
-0.726969 0.780576 0
-0.660522 0.840018 0
-0.672363 0.786691 0
-0.625 1 0
-0.636841 0.946673 0
-0.5625 1 0
-0.576314 0.948202 0
-0.636841 0.946673 0
-0.648682 0.893346 0
-0.576314 0.948202 0
-0.590129 0.896403 0
-0.5625 1 0
-0.576314 0.948202 0
-0.5 1 0
-0.515788 0.94973 0
-0.576314 0.948202 0
-0.590129 0.896403 0
-0.515788 0.94973 0
-0.531576 0.899461 0
-0.648682 0.893346 0
-0.660522 0.840018 0
-0.590129 0.896403 0
-0.603943 0.844605 0
-0.660522 0.840018 0
-0.672363 0.786691 0
-0.603943 0.844605 0
-0.617757 0.792806 0
-0.590129 0.896403 0
-0.603943 0.844605 0
-0.531576 0.899461 0
-0.547363 0.849191 0
-0.603943 0.844605 0
-0.617757 0.792806 0
-0.547363 0.849191 0
-0.563151 0.798922 0
-0.781576 0.774461 0
-0.789469 0.718076 0
-0.726969 0.780576 0
-0.736837 0.72572 0
-0.789469 0.718076 0
-0.797363 0.661691 0
-0.736837 0.72572 0
-0.746704 0.670864 0
-0.726969 0.780576 0
-0.736837 0.72572 0
-0.672363 0.786691 0
-0.684204 0.733364 0
-0.736837 0.72572 0
-0.746704 0.670864 0
-0.684204 0.733364 0
-0.696045 0.680037 0
-0.797363 0.661691 0
-0.805257 0.605306 0
-0.746704 0.670864 0
-0.756571 0.616008 0
-0.805257 0.605306 0
-0.813151 0.548922 0
-0.756571 0.616008 0
-0.766439 0.561152 0
-0.746704 0.670864 0
-0.756571 0.616008 0
-0.696045 0.680037 0
-0.707886 0.62671 0
-0.756571 0.616008 0
-0.766439 0.561152 0
-0.707886 0.62671 0
-0.719727 0.573382 0
-0.672363 0.786691 0
-0.684204 0.733364 0
-0.617757 0.792806 0
-0.631571 0.741008 0
-0.684204 0.733364 0
-0.696045 0.680037 0
-0.631571 0.741008 0
-0.645386 0.68921 0
-0.617757 0.792806 0
-0.631571 0.741008 0
-0.563151 0.798922 0
-0.578939 0.748652 0
-0.631571 0.741008 0
-0.645386 0.68921 0
[...]
POINT_DATA 3584
SCALARS solution double 1
LOOKUP_TABLE default
1.0916 1.06036 1.07243 1.0378 1.06036 1.02909 1.0378 1.00314 1.07243 1.0378 1.05365 1.01553 1.0378 1.00314 1.01553 0.977345 1.02909 0.997819 1.00314 0.968471 0.997819 0.966567 0.968471 0.933824 1.00314 0.968471 0.977345 0.939141 0.968471 0.933824 0.939141 0.900956 1.05365 1.01553 1.0353 0.993565 1.01553 0.977345 0.993565 0.951737 1.0353 0.993565 1.0174 0.971957 0.993565 0.951737 0.971957 0.926354 0.977345 0.939141 0.951737 0.909855 0.939141 0.900956 0.909855 0.867975 0.951737 0.909855 0.926354 0.880645 0.909855 0.867975 0.880645 0.834903 0.966567 0.935356 0.933824 0.899235 0.935356 0.904212 0.899235 0.864745 0.933824 0.899235 0.900956 0.862841 0.899235 0.864745 0.862841 0.82486 0.904212 0.873166 0.864745 0.830402 0.873166 0.842251 0.830402 0.79626 0.864745 0.830402 0.82486 0.787085 0.830402 0.79626 0.787085 0.7496 0.900956 0.862841 0.867975 0.826172 0.862841 0.82486 0.826172 0.784533 0.867975 0.826172 0.834903 0.789225 0.826172 0.784533 0.789225 0.743737 0.82486 0.787085 0.784533 0.743169 0.787085 0.7496 0.743169 0.702208 0.784533 0.743169 0.743737 0.698601 0.743169 0.702208 0.698601 0.65401 1.0174 0.971957 0.999999 0.950743 0.971957 0.926354 0.950743 0.90124 0.999999 0.950743 0.983124 0.929964 0.950743 0.90124 0.929964 0.876441 0.926354 0.880645 0.90124 0.851551 0.880645 0.834903 0.851551 0.801764 0.90124 0.851551 0.876441 0.822617 0.851551 0.801764 0.822617 0.76859 0.983124 0.929964 0.966802 0.909661 0.929964 0.876441 0.909661 0.852006 0.966802 0.909661 0.951057 0.889871 0.909661 0.852006 0.889871 0.827987 0.876441 0.822617 0.852006 0.793894 0.822617 0.76859 0.793894 0.735425 0.852006 0.793894 0.827987 0.765439 0.793894 0.735425 0.765439 0.70232 0.834903 0.789225 0.801764 0.752004 0.789225 0.743737 0.752004 0.702445 0.801764 0.752004 0.76859 0.714517 0.752004 0.702445 0.714517 0.660627 0.743737 0.698601 0.702445 0.653319 0.698601 0.65401 0.653319 0.604916 0.702445 0.653319 0.660627 0.60725 0.653319 0.604916 0.60725 0.554819 0.76859 0.714517 0.735425 0.67678 0.714517 0.660627 0.67678 0.618254 0.735425 0.67678 0.70232 0.638819 0.67678 0.618254 0.638819 0.575294 0.660627 0.60725 0.618254 0.560305 0.60725 0.554819 0.560305 0.503584 0.618254 0.560305 0.575294 0.512374 0.560305 0.503584 0.512374 0.451035 1.25493 1.2133 1.23381 1.19348 1.2133 1.17155 1.19348 1.15305 1.23381 1.19348 1.21285 1.17382 1.19348 1.15305 1.17382 1.1347 1.17155 1.1297 1.15305 1.11253 1.1297 1.08777 1.11253 1.07193 1.15305 1.11253 1.1347 1.0955 1.11253 1.07193 1.0955 1.05624 1.21285 1.17382 1.19206 1.15433 1.17382 1.1347 1.15433 1.11652 1.19206 1.15433 1.17146 1.13503 1.15433 1.11652 1.13503 1.09853 1.1347 1.0955 1.11652 1.07864 1.0955 1.05624 1.07864 1.04072 1.11652 1.07864 1.09853 1.06198 1.07864 1.04072 1.06198 1.0254 1.08777 1.04577 1.07193 1.03128 1.04577 1.00372 1.03128 0.990591 1.07193 1.03128 1.05624 1.01694 1.03128 0.990591 1.01694 0.977619 1.00372 0.961645 0.990591 0.949899 0.961645 0.919581 0.949899 0.90923 0.990591 0.949899 0.977619 0.938307 0.949899 0.90923 0.938307 0.899034 1.05624 1.01694 1.04072 1.00277 1.01694 0.977619 1.00277 0.964819 1.04072 1.00277 1.0254 0.988801 1.00277 0.964819 0.988801 0.952213 0.977619 0.938307 0.964819 0.926889 0.938307 0.899034 0.926889 0.889011 0.964819 0.926889 0.952213 0.915663 0.926889 0.889011 0.915663 0.879182 1.17146 1.13503 1.15108 1.11595 1.13503 1.09853 1.11595 1.08077 1.15108 1.11595 1.13096 1.09713 1.11595 1.08077 1.09713 1.06325 1.09853 1.06198 1.08077 1.04554 1.06198 1.0254 1.04554 1.01029 1.08077 1.04554 1.06325 1.02935 1.04554 1.01029 1.02935 0.995434 1.13096 1.09713 1.11112 1.07858 1.09713 1.06325 1.07858 1.04601 1.11112 1.07858 1.0916 1.06036 1.07858 1.04601 1.06036 1.02909 1.06325 1.02935 1.04601 1.01343 1.02935 0.995434 1.01343 0.980849 1.04601 1.01343 1.02909 0.997819 1.01343 0.980849 0.997819 0.966567 1.0254 0.988801 1.01029 0.975046 0.988801 0.952213 0.975046 0.939823 1.01029 0.975046 0.995434 0.961535 0.975046 0.939823 0.961535 0.927675 0.952213 0.915663 0.939823 0.904653 0.915663 0.879182 0.904653 0.869567 0.939823 0.904653 0.927675 0.893882 0.904653 0.869567 0.893882 0.86019 0.995434 0.961535 0.980849 0.948295 0.961535 0.927675 0.948295 0.915795 0.980849 0.948295 0.966567 0.935356 0.948295 0.915795 0.935356 0.904212 0.927675 0.893882 0.915795 0.883377 0.893882 0.86019 0.883377 0.851075 0.915795 0.883377 0.904212 0.873166 0.883377 0.851075 0.873166 0.842251 0.919581 0.877557 0.90923 0.866511 0.877557 0.835608 0.866511 0.823757 0.90923 0.866511 0.899034 0.855657 0.866511 0.823757 0.855657 0.812135 0.835608 0.793773 0.823757 0.781002 0.793773 0.752092 0.781002 0.738283 0.823757 0.781002 0.812135 0.768491 0.781002 0.738283 0.768491 0.724755 0.899034 0.855657 0.889011 0.845023 0.855657 0.812135 0.845023 0.800777 0.889011 0.845023 0.879182 0.834636 0.845023 0.800777 0.834636 0.789726 0.812135 0.768491 0.800777 0.756287 0.768491 0.724755 0.756287 0.711572 0.800777 0.756287 0.789726 0.744449 0.756287 0.711572 0.744449 0.698808 0.752092 0.71061 0.738283 0.695641 0.71061 0.669369 0.695641 0.653122 0.738283 0.695641 0.724755 0.680964 0.695641 0.653122 0.680964 0.637158 0.669369 0.628413 0.653122 0.610772 0.628413 0.587785 0.610772 0.568641 0.653122 0.610772 0.637158 0.593386 0.610772 0.568641 0.593386 0.549697 0.724755 0.680964 0.711572 0.666655 0.680964 0.637158 0.666655 0.62157 0.711572 0.666655 0.698808 0.652812 0.666655 0.62157 0.652812 0.606474 0.637158 0.593386 0.62157 0.576355 0.593386 0.549697 0.576355 0.531058 0.62157 0.576355 0.606474 0.559818 0.576355 0.531058 0.559818 0.512879 0.879182 0.834636 0.869567 0.82453 0.834636 0.789726 0.82453 0.779027 0.869567 0.82453 0.86019 0.814739 0.82453 0.779027 0.814739 0.768734 0.789726 0.744449 0.779027 0.733041 0.744449 0.698808 0.733041 0.686554 0.779027 0.733041 0.768734 0.722139 0.733041 0.686554 0.722139 0.674917 0.86019 0.814739 0.851075 0.805302 0.814739 0.768734 0.805302 0.758904 0.851075 0.805302 0.842251 0.79626 0.805302 0.758904 0.79626 0.7496 0.768734 0.722139 0.758904 0.71183 0.722139 0.674917 0.71183 0.664021 0.758904 0.71183 0.7496 0.702208 0.71183 0.664021 0.702208 0.65401 0.698808 0.652812 0.686554 0.639552 0.652812 0.606474 0.639552 0.592024 0.686554 0.639552 0.674917 0.627025 0.639552 0.592024 0.627025 0.57842 0.606474 0.559818 0.592024 0.543966 0.559818 0.512879 0.543966 0.495382 0.592024 0.543966 0.57842 0.529057 0.543966 0.495382 0.529057 0.478892 0.674917 0.627025 0.664021 0.615409 0.627025 0.57842 0.615409 0.565914 0.664021 0.615409 0.65401 0.604916 0.615409 0.565914 0.604916 0.554819 0.57842 0.529057 0.565914 0.515443 0.529057 0.478892 0.515443 0.463884 0.565914 0.515443 0.554819 0.503584 0.515443 0.463884 0.503584 0.451035 0.418448 0.367604 0.413601 0.363141 0.367604 0.316176 0.363141 0.31218 0.413601 0.363141 0.409553 0.35944 0.363141 0.31218 0.35944 0.308888 0.316176 0.264213 0.31218 0.260764 0.264213 0.211789 0.260764 0.208963 0.31218 0.260764 0.308888 0.257943 0.260764 0.208963 0.257943 0.206667 0.409553 0.35944 0.406175 0.356369 0.35944 0.308888 0.356369 0.306173 0.406175 0.356369 0.403364 0.353826 0.356369 0.306173 0.353826 0.303934 0.308888 0.257943 0.306173 0.255629 0.257943 0.206667 0.255629 0.204791 0.306173 0.255629 0.303934 0.253728 0.255629 0.204791 0.253728 0.203257 0.211789 0.15901 0.208963 0.156868 0.15901 0.106011 0.156868 0.10459 0.208963 0.156868 0.206667 0.155136 0.156868 0.10459 0.155136 0.103444 0.106011 0.0529511 0.10459 0.0522555 0.0529511 0 0.0522555 0 0.10459 0.0522555 0.103444 0.0516958 0.0522555 0 0.0516958 0 0.206667 0.155136 0.204791 0.153727 0.155136 0.103444 0.153727 0.102515 0.204791 0.153727 0.203257 0.152579 0.153727 0.102515 0.152579 0.10176 0.103444 0.0516958 0.102515 0.0512425 0.0516958 0 0.0512425 0 0.102515 0.0512425 0.10176 0.0508745 0.0512425 0 0.0508745 0 0.403364 0.353826 0.401037 0.351726 0.353826 0.303934 0.351726 0.302092 0.401037 0.351726 0.399122 0.350004 0.351726 0.302092 0.350004 0.300586 0.303934 0.253728 0.302092 0.252171 0.253728 0.203257 0.252171 0.202004 0.302092 0.252171 0.300586 0.2509 0.252171 0.202004 0.2509 0.200985 0.399122 0.350004 0.397563 0.348605 0.350004 0.300586 0.348605 0.299366 0.397563 0.348605 0.396312 0.347485 0.348605 0.299366 0.347485 0.29839 0.300586 0.2509 0.299366 0.249874 0.2509 0.200985 0.249874 0.200163 0.299366 0.249874 0.29839 0.249055 0.249874 0.200163 0.249055 0.199511 0.203257 0.152579 0.202004 0.151643 0.152579 0.10176 0.151643 0.101146 0.202004 0.151643 0.200985 0.150884 0.151643 0.101146 0.150884 0.100649 0.10176 0.0508745 0.101146 0.0505761 0.0508745 0 0.0505761 0 0.101146 0.0505761 0.100649 0.0503354 0.0505761 0 0.0503354 0 0.200985 0.150884 0.200163 0.150275 0.150884 0.100649 0.150275 0.100252 0.200163 0.150275 0.199511 0.149792 0.150275 0.100252 0.149792 0.0999378 0.100649 0.0503354 0.100252 0.0501432 0.0503354 0 0.0501432 0 0.100252 0.0501432 0.0999378 0.0499922 0.0501432 0 0.0499922 0 0.846667 0.795948 0.836189 0.785933 0.795948 0.744541 0.785933 0.735032 0.836189 0.785933 0.826218 0.776463 0.785933 0.735032 0.776463 0.72611 0.744541 0.692395 0.735032 0.683446 0.692395 0.639455 0.683446 0.63113 0.735032 0.683446 0.72611 0.675126 0.683446 0.63113 0.675126 0.623477 0.826218 0.776463 0.816727 0.767506 0.776463 0.72611 0.767506 0.717734 0.816727 0.767506 0.807691 0.759031 0.767506 0.717734 0.759031 0.709866 0.72611 0.675126 0.717734 0.667386 0.675126 0.623477 0.667386 0.616436 0.717734 0.667386 0.709866 0.660179 0.667386 0.616436 0.660179 0.609951 0.639455 0.58566 0.63113 0.578037 0.58566 0.530942 0.578037 0.524117 0.63113 0.578037 0.623477 0.571129 0.578037 0.524117 0.571129 0.518046 0.530942 0.47523 0.524117 0.469322 0.47523 0.418448 0.469322 0.413601 0.524117 0.469322 0.518046 0.464197 0.469322 0.413601 0.464197 0.409553 0.623477 0.571129 0.616436 0.564861 0.571129 0.518046 0.564861 0.512637 0.616436 0.564861 0.609951 0.559166 0.564861 0.512637 0.559166 0.507812 0.518046 0.464197 0.512637 0.459746 0.464197 0.409553 0.459746 0.406175 0.512637 0.459746 0.507812 0.455879 0.459746 0.406175 0.455879 0.403364 0.807691 0.759031 0.799084 0.751006 0.759031 0.709866 0.751006 0.702469 0.799084 0.751006 0.79088 0.743402 0.751006 0.702469 0.743402 0.695508 0.709866 0.660179 0.702469 0.653461 0.660179 0.609951 0.653461 0.603968 0.702469 0.653461 0.695508 0.64719 0.653461 0.603968 0.64719 0.598442 0.79088 0.743402 0.783056 0.73619 0.743402 0.695508 0.73619 0.688949 0.783056 0.73619 0.775587 0.729343 0.73619 0.688949 0.729343 0.682762 0.695508 0.64719 0.688949 0.641329 0.64719 0.598442 0.641329 0.593328 0.688949 0.641329 0.682762 0.635844 0.641329 0.593328 0.635844 0.588589 0.609951 0.559166 0.603968 0.553984 0.559166 0.507812 0.553984 0.5035 0.603968 0.553984 0.598442 0.549259 0.553984 0.5035 0.549259 0.499642 0.507812 0.455879 0.5035 0.452517 0.455879 0.403364 0.452517 0.401037 0.5035 0.452517 0.499642 0.449593 0.452517 0.401037 0.449593 0.399122 0.598442 0.549259 0.593328 0.544946 0.549259 0.499642 0.544946 0.496185 0.593328 0.544946 0.588589 0.541001 0.544946 0.496185 0.541001 0.493085 0.499642 0.449593 0.496185 0.447054 0.449593 0.399122 0.447054 0.397563 0.496185 0.447054 0.493085 0.444851 0.447054 0.397563 0.444851 0.396312 0.951057 0.889871 0.935905 0.875458 0.889871 0.827987 0.875458 0.814164 0.935905 0.875458 0.921359 0.86183 0.875458 0.814164 0.86183 0.801355 0.827987 0.765439 0.814164 0.75199 0.765439 0.70232 0.75199 0.688927 0.814164 0.75199 0.801355 0.739856 0.75199 0.688927 0.739856 0.677249 0.921359 0.86183 0.907423 0.848987 0.86183 0.801355 0.848987 0.789558 0.907423 0.848987 0.894096 0.83692 0.848987 0.789558 0.83692 0.778752 0.801355 0.739856 0.789558 0.729033 0.739856 0.677249 0.729033 0.667284 0.789558 0.729033 0.778752 0.719479 0.729033 0.667284 0.719479 0.658961 0.70232 0.638819 0.688927 0.625014 0.638819 0.575294 0.625014 0.56039 0.688927 0.625014 0.677249 0.613455 0.625014 0.56039 0.613455 0.548414 0.575294 0.512374 0.56039 0.495393 0.512374 0.451035 0.495393 0.430737 0.56039 0.495393 0.548414 0.48214 0.495393 0.430737 0.48214 0.414846 0.677249 0.613455 0.667284 0.60416 0.613455 0.548414 0.60416 0.539479 0.667284 0.60416 0.658961 0.597024 0.60416 0.539479 0.597024 0.533442 0.548414 0.48214 0.539479 0.473024 0.48214 0.414846 0.473024 0.404554 0.539479 0.473024 0.533442 0.467915 0.473024 0.404554 0.467915 0.40002 0.894096 0.83692 0.881371 0.825612 0.83692 0.778752 0.825612 0.7689 0.881371 0.825612 0.869236 0.815037 0.825612 0.7689 0.815037 0.759953 0.778752 0.719479 0.7689 0.711128 0.719479 0.658961 0.711128 0.652165 0.7689 0.711128 0.759953 0.703894 0.711128 0.652165 0.703894 0.646751 0.869236 0.815037 0.857675 0.805161 0.815037 0.759953 0.805161 0.751853 0.857675 0.805161 0.846667 0.795948 0.805161 0.751853 0.795948 0.744541 0.759953 0.703894 0.751853 0.697682 0.703894 0.646751 0.697682 0.642565 0.751853 0.697682 0.744541 0.692395 0.697682 0.642565 0.692395 0.639455 0.658961 0.597024 0.652165 0.591849 0.597024 0.533442 0.591849 0.529972 0.652165 0.591849 0.646751 0.588393 0.591849 0.529972 0.588393 0.528657 0.533442 0.467915 0.529972 0.466256 0.467915 0.40002 0.466256 0.400321 0.529972 0.466256 0.528657 0.467337 0.466256 0.400321 0.467337 0.40417 0.646751 0.588393 0.642565 0.586407 0.588393 0.528657 0.586407 0.529096 0.642565 0.586407 0.639455 0.58566 0.586407 0.529096 0.58566 0.530942 0.528657 0.467337 0.529096 0.470502 0.467337 0.40417 0.470502 0.410471 0.529096 0.470502 0.530942 0.47523 0.470502 0.410471 0.47523 0.418448 0.451035 0.405325 0.430737 0.38367 0.405325 0.358284 0.38367 0.335147 0.430737 0.38367 0.414846 0.366729 0.38367 0.335147 0.366729 0.317191 0.358284 0.309636 0.335147 0.284852 0.309636 0.258983 0.284852 0.232337 0.335147 0.284852 0.317191 0.266016 0.284852 0.232337 0.266016 0.213009 0.414846 0.366729 0.404554 0.355881 0.366729 0.317191 0.355881 0.306036 0.404554 0.355881 0.40002 0.351134 0.355881 0.306036 0.351134 0.301365 0.317191 0.266016 0.306036 0.255007 0.266016 0.213009 0.255007 0.202946 0.306036 0.255007 0.301365 0.250816 0.255007 0.202946 0.250816 0.199723 0.258983 0.205691 0.232337 0.176937 0.205691 0.148613 0.176937 0.117732 0.232337 0.176937 0.213009 0.158198 0.176937 0.117732 0.158198 0.102556 0.148613 0.0849737 0.117732 0.0547176 0.0849737 0 0.0547176 0 0.117732 0.0547176 0.102556 0.049025 0.0547176 0 0.049025 0 0.213009 0.158198 0.202946 0.150363 0.158198 0.102556 0.150363 0.0982576 0.202946 0.150363 0.199723 0.14851 0.150363 0.0982576 0.14851 0.0977672 0.102556 0.049025 0.0982576 0.047861 0.049025 0 0.047861 0 0.0982576 0.047861 0.0977672 0.0481122 0.047861 0 0.0481122 0 0.40002 0.351134 0.400321 0.351234 0.351134 0.301365 0.351234 0.301453 0.400321 0.351234 0.40417 0.354703 0.351234 0.301453 0.354703 0.304628 0.301365 0.250816 0.301453 0.251088 0.250816 0.199723 0.251088 0.200336 0.301453 0.251088 0.304628 0.254036 0.251088 0.200336 0.254036 0.20307 0.40417 0.354703 0.410471 0.360409 0.354703 0.304628 0.360409 0.309766 0.410471 0.360409 0.418448 0.367604 0.360409 0.309766 0.367604 0.316176 0.304628 0.254036 0.309766 0.25861 0.254036 0.20307 0.25861 0.207045 0.309766 0.25861 0.316176 0.264213 0.25861 0.207045 0.264213 0.211789 0.199723 0.14851 0.200336 0.149486 0.14851 0.0977672 0.149486 0.0989034 0.200336 0.149486 0.20307 0.15193 0.149486 0.0989034 0.15193 0.100864 0.0977672 0.0481122 0.0989034 0.0489682 0.0481122 0 0.0489682 0 0.0989034 0.0489682 0.100864 0.0501373 0.0489682 0 0.0501373 0 0.20307 0.15193 0.207045 0.155213 0.15193 0.100864 0.155213 0.103293 0.207045 0.155213 0.211789 0.15901 0.155213 0.103293 0.15901 0.106011 0.100864 0.0501373 0.103293 0.0514877 0.0501373 0 0.0514877 0 0.103293 0.0514877 0.106011 0.0529511 0.0514877 0 0.0529511 0 0.129383 0.11324 0.141554 0.123904 0.11324 0.0970849 0.123904 0.106237 0.141554 0.123904 0.153959 0.134776 0.123904 0.106237 0.134776 0.11557 0.0970849 0.0809203 0.106237 0.0885552 0.0809203 0.0647471 0.0885552 0.070861 0.106237 0.0885552 0.11557 0.0963439 0.0885552 0.070861 0.0963439 0.0770996 0.153959 0.134776 0.166613 0.145872 0.134776 0.11557 0.145872 0.125099 0.166613 0.145872 0.179536 0.157209 0.145872 0.125099 0.157209 0.13484 0.11557 0.0963439 0.125099 0.104299 0.0963439 0.0770996 0.104299 0.0834734 0.125099 0.104299 0.13484 0.112434 0.104299 0.0834734 0.112434 0.0899941 0.0647471 0.0485667 0.070861 0.0531561 0.0485667 0.0323806 0.0531561 0.0354424 0.070861 0.0531561 0.0770996 0.0578401 0.0531561 0.0354424 0.0578401 0.038568 0.0323806 0.0161901 0.0354424 0.017722 0.0161901 -3.29313e-06 0.017722 -3.1829e-06 0.0354424 0.017722 0.038568 0.019286 0.017722 -3.1829e-06 0.019286 -3.0717e-06 0.0770996 0.0578401 0.0834734 0.0626268 0.0578401 0.038568 0.0626268 0.0417628 0.0834734 0.0626268 0.0899941 0.0675255 0.0626268 0.0417628 0.0675255 0.0450332 0.038568 0.019286 0.0417628 0.0208849 0.019286 -3.0717e-06 0.0208849 -2.95948e-06 0.0417628 0.0208849 0.0450332 0.022522 0.0208849 -2.95948e-06 0.022522 -2.84619e-06 0.179536 0.157209 0.192747 0.168807 0.157209 0.13484 0.168807 0.144811 0.192747 0.168807 0.206269 0.180687 0.168807 0.144811 0.180687 0.155032 0.13484 0.112434 0.144811 0.120765 0.112434 0.0899941 0.120765 0.0966751 0.144811 0.120765 0.155032 0.129311 0.120765 0.0966751 0.129311 0.103532 0.206269 0.180687 0.220127 0.192873 0.180687 0.155032 0.192873 0.165525 0.220127 0.192873 0.234347 0.205393 0.192873 0.165525 0.205393 0.176318 0.155032 0.129311 0.165525 0.138092 0.129311 0.103532 0.138092 0.110583 0.165525 0.138092 0.176318 0.147132 0.138092 0.110583 0.147132 0.117848 0.0899941 0.0675255 0.0966751 0.0725467 0.0675255 0.0450332 0.0725467 0.0483865 0.0966751 0.0725467 0.103532 0.0777026 0.0725467 0.0483865 0.0777026 0.051831 0.0450332 0.022522 0.0483865 0.024201 0.022522 -2.84619e-06 0.024201 -2.73176e-06 0.0483865 0.024201 0.051831 0.0259263 0.024201 -2.73176e-06 0.0259263 -2.61612e-06 0.103532 0.0777026 0.110583 0.0830073 0.0777026 0.051831 0.0830073 0.0553768 0.110583 0.0830073 0.117848 0.0884773 0.0830073 0.0553768 0.0884773 0.0590353 0.051831 0.0259263 0.0553768 0.0277028 0.0259263 -2.61612e-06 0.0277028 -2.49919e-06 0.0553768 0.0277028 0.0590353 0.0295367 0.0277028 -2.49919e-06 0.0295367 -2.38087e-06 0.278334 0.259796 0.315315 0.293722 0.259796 0.241231 0.293722 0.272087 0.315315 0.293722 0.352802 0.328139 0.293722 0.272087 0.328139 0.303412 0.241231 0.222641 0.272087 0.250413 0.222641 0.204028 0.250413 0.228702 0.272087 0.250413 0.303412 0.278627 0.250413 0.228702 0.278627 0.253786 0.352802 0.328139 0.390793 0.36305 0.328139 0.303412 0.36305 0.335217 0.390793 0.36305 0.429277 0.398455 0.36305 0.335217 0.398455 0.367505 0.303412 0.278627 0.335217 0.307297 0.278627 0.253786 0.307297 0.279296 0.335217 0.307297 0.367505 0.336434 0.307297 0.279296 0.336434 0.305249 0.204028 0.185394 0.228702 0.206958 0.185394 0.166741 0.206958 0.185183 0.228702 0.206958 0.253786 0.228894 0.206958 0.185183 0.228894 0.203955 0.166741 0.148069 0.185183 0.163381 0.148069 0.129383 0.163381 0.141554 0.185183 0.163381 0.203955 0.178975 0.163381 0.141554 0.178975 0.153959 0.253786 0.228894 0.279296 0.25122 0.228894 0.203955 0.25122 0.223077 0.279296 0.25122 0.305249 0.273957 0.25122 0.223077 0.273957 0.242568 0.203955 0.178975 0.223077 0.194872 0.178975 0.153959 0.194872 0.166613 0.223077 0.194872 0.242568 0.21109 0.194872 0.166613 0.21109 0.179536 0.429277 0.398455 0.468242 0.434347 0.398455 0.367505 0.434347 0.400281 0.468242 0.434347 0.507666 0.470717 0.434347 0.400281 0.470717 0.433542 0.367505 0.336434 0.400281 0.366049 0.336434 0.305249 0.366049 0.33166 0.400281 0.366049 0.433542 0.396147 0.366049 0.33166 0.396147 0.358541 0.507666 0.470717 0.547524 0.507548 0.470717 0.433542 0.507548 0.467282 0.547524 0.507548 0.587785 0.544819 0.507548 0.467282 0.544819 0.50149 0.433542 0.396147 0.467282 0.426732 0.396147 0.358541 0.426732 0.385905 0.467282 0.426732 0.50149 0.457801 0.426732 0.385905 0.457801 0.413758 0.305249 0.273957 0.33166 0.297123 0.273957 0.242568 0.297123 0.262449 0.33166 0.297123 0.358541 0.320735 0.297123 0.262449 0.320735 0.282743 0.242568 0.21109 0.262449 0.227652 0.211