# vtk DataFile Version 3.0
#This file was generated by the deal.II library on 2020/5/26 at 15:48:35
ASCII
DATASET UNSTRUCTURED_GRID

POINTS 224 double
-0.5 1 0
-0.563151 0.798922 0
-0.25 1 0
-0.361654 0.713543 0
-0.563151 0.798922 0
-0.626302 0.597843 0
-0.361654 0.713543 0
-0.473307 0.427086 0
-0.25 1 0
-0.361654 0.713543 0
2.7528e-12 1 0
-0.160156 0.628165 0
-0.361654 0.713543 0
-0.473307 0.427086 0
-0.160156 0.628165 0
-0.320312 0.25633 0
-1 1 0
-1 0.75 0
-0.75 1 0
-0.781576 0.774461 0
-1 0.75 0
-1 0.5 0
-0.781576 0.774461 0
-0.813151 0.548922 0
-0.75 1 0
-0.781576 0.774461 0
-0.5 1 0
-0.563151 0.798922 0
-0.781576 0.774461 0
-0.813151 0.548922 0
-0.563151 0.798922 0
-0.626302 0.597843 0
-1 0.5 0
-1 0.25 0
-0.813151 0.548922 0
-0.736654 0.338543 0
-1 0.25 0
-1 2.7528e-12 0
-0.736654 0.338543 0
-0.660156 0.128165 0
-0.813151 0.548922 0
-0.736654 0.338543 0
-0.626302 0.597843 0
-0.473307 0.427086 0
-0.736654 0.338543 0
-0.660156 0.128165 0
-0.473307 0.427086 0
-0.320312 0.25633 0
0.447449 0.460023 0
0.473724 0.230011 0
0.723724 0.480011 0
0.736862 0.240006 0
0.473724 0.230011 0
0.5 0 0
0.736862 0.240006 0
0.75 0 0
0.723724 0.480011 0
0.736862 0.240006 0
1 0.5 0
1 0.25 0
0.736862 0.240006 0
0.75 0 0
1 0.25 0
1 0 0
0.5 1 0
0.473724 0.730011 0
0.75 1 0
0.736862 0.740006 0
0.473724 0.730011 0
0.447449 0.460023 0
0.736862 0.740006 0
0.723724 0.480011 0
0.75 1 0
0.736862 0.740006 0
1 1 0
1 0.75 0
0.736862 0.740006 0
0.723724 0.480011 0
1 0.75 0
1 0.5 0
2.7528e-12 1 0
-0.160156 0.628165 0
0.25 1 0
0.156784 0.679088 0
-0.160156 0.628165 0
-0.320312 0.25633 0
0.156784 0.679088 0
0.0635683 0.358176 0
0.25 1 0
0.156784 0.679088 0
0.5 1 0
0.473724 0.730011 0
0.156784 0.679088 0
0.0635683 0.358176 0
0.473724 0.730011 0
0.447449 0.460023 0
-0.320312 0.25633 0
-0.160156 0.128165 0
0.0635683 0.358176 0
0.156784 0.179088 0
-0.160156 0.128165 0
0 0 0
0.156784 0.179088 0
0.25 0 0
0.0635683 0.358176 0
0.156784 0.179088 0
0.447449 0.460023 0
0.473724 0.230011 0
0.156784 0.179088 0
0.25 0 0
0.473724 0.230011 0
0.5 0 0
-0.867215 -0.635484 0
-0.808605 -0.692742 0
-0.785169 -0.474318 0
-0.705082 -0.549659 0
-0.808605 -0.692742 0
-0.749994 -0.75 0
-0.705082 -0.549659 0
-0.624995 -0.625 0
-0.785169 -0.474318 0
-0.705082 -0.549659 0
-0.703123 -0.313151 0
-0.60156 -0.406576 0
-0.705082 -0.549659 0
-0.624995 -0.625 0
-0.60156 -0.406576 0
-0.499996 -0.5 0
-1 -0.5 0
-0.933608 -0.567742 0
-1 -0.25 0
-0.892585 -0.362159 0
-0.933608 -0.567742 0
-0.867215 -0.635484 0
-0.892585 -0.362159 0
-0.785169 -0.474318 0
-1 -0.25 0
-0.892585 -0.362159 0
-1 2.7528e-12 0
-0.851561 -0.156576 0
-0.892585 -0.362159 0
-0.785169 -0.474318 0
-0.851561 -0.156576 0
-0.703123 -0.313151 0
-1 -1 0
-0.999998 -1 0
-1 -0.75 0
-0.966803 -0.783871 0
-0.999998 -1 0
-0.999996 -1 0
-0.966803 -0.783871 0
-0.933606 -0.817742 0
-1 -0.75 0
-0.966803 -0.783871 0
-1 -0.5 0
-0.933608 -0.567742 0
-0.966803 -0.783871 0
-0.933606 -0.817742 0
-0.933608 -0.567742 0
-0.867215 -0.635484 0
-0.999996 -1 0
-0.999994 -1 0
-0.933606 -0.817742 0
-0.904299 -0.846371 0
-0.999994 -1 0
-0.999992 -1 0
-0.904299 -0.846371 0
-0.874993 -0.875 0
-0.933606 -0.817742 0
-0.904299 -0.846371 0
-0.867215 -0.635484 0
-0.808605 -0.692742 0
-0.904299 -0.846371 0
-0.874993 -0.875 0
-0.808605 -0.692742 0
-0.749994 -0.75 0
-0.703123 -0.313151 0
-0.60156 -0.406576 0
-0.577716 -0.219735 0
-0.476357 -0.297368 0
-0.60156 -0.406576 0
-0.499996 -0.5 0
-0.476357 -0.297368 0
-0.374997 -0.375 0
-0.577716 -0.219735 0
-0.476357 -0.297368 0
-0.45231 -0.126319 0
-0.351154 -0.18816 0
-0.476357 -0.297368 0
-0.374997 -0.375 0
-0.351154 -0.18816 0
-0.249998 -0.25 0
-0.320312 0.25633 0
-0.386311 0.0650051 0
-0.160156 0.128165 0
-0.255655 -0.0299975 0
-0.386311 0.0650051 0
-0.45231 -0.126319 0
-0.255655 -0.0299975 0
-0.351154 -0.18816 0
-0.160156 0.128165 0
-0.255655 -0.0299975 0
0 0 0
-0.124999 -0.125 0
-0.255655 -0.0299975 0
-0.351154 -0.18816 0
-0.124999 -0.125 0
-0.249998 -0.25 0
-1 2.7528e-12 0
-0.851561 -0.156576 0
-0.660156 0.128165 0
-0.618936 -0.0457852 0
-0.851561 -0.156576 0
-0.703123 -0.313151 0
-0.618936 -0.0457852 0
-0.577716 -0.219735 0
-0.660156 0.128165 0
-0.618936 -0.0457852 0
-0.320312 0.25633 0
-0.386311 0.0650051 0
-0.618936 -0.0457852 0
-0.577716 -0.219735 0
-0.386311 0.0650051 0
-0.45231 -0.126319 0

CELLS 56 280
4	0	1	3	2
4	4	5	7	6
4	8	9	11	10
4	12	13	15	14
4	16	17	19	18
4	20	21	23	22
4	24	25	27	26
4	28	29	31	30
4	32	33	35	34
4	36	37	39	38
4	40	41	43	42
4	44	45	47	46
4	48	49	51	50
4	52	53	55	54
4	56	57	59	58
4	60	61	63	62
4	64	65	67	66
4	68	69	71	70
4	72	73	75	74
4	76	77	79	78
4	80	81	83	82
4	84	85	87	86
4	88	89	91	90
4	92	93	95	94
4	96	97	99	98
4	100	101	103	102
4	104	105	107	106
4	108	109	111	110
4	112	113	115	114
4	116	117	119	118
4	120	121	123	122
4	124	125	127	126
4	128	129	131	130
4	132	133	135	134
4	136	137	139	138
4	140	141	143	142
4	144	145	147	146
4	148	149	151	150
4	152	153	155	154
4	156	157	159	158
4	160	161	163	162
4	164	165	167	166
4	168	169	171	170
4	172	173	175	174
4	176	177	179	178
4	180	181	183	182
4	184	185	187	186
4	188	189	191	190
4	192	193	195	194
4	196	197	199	198
4	200	201	203	202
4	204	205	207	206
4	208	209	211	210
4	212	213	215	214
4	216	217	219	218
4	220	221	223	222

CELL_TYPES 56
 9 9 9 9 9 9 9 9 9 9 9 9 9 9 9 9 9 9 9 9 9 9 9 9 9 9 9 9 9 9 9 9 9 9 9 9 9 9 9 9 9 9 9 9 9 9 9 9 9 9 9 9 9 9 9 9
POINT_DATA 224
SCALARS solution double 1
LOOKUP_TABLE default
1.0916 0.966513 1.0174 0.834789 0.966513 0.842173 0.834789 0.653859 1.0174 0.834789 0.951057 0.70224 0.834789 0.653859 0.70224 0.45049 1.25493 1.08777 1.17146 1.02537 1.08777 0.919581 1.02537 0.879134 1.17146 1.02537 1.0916 0.966513 1.02537 0.879134 0.966513 0.842173 0.919581 0.752092 0.879134 0.698713 0.752092 0.587785 0.698713 0.512772 0.879134 0.698713 0.842173 0.653859 0.698713 0.512772 0.653859 0.45049 0.418387 0.211616 0.40334 0.203235 0.211616 0 0.203235 0 0.40334 0.203235 0.396312 0.199511 0.203235 0 0.199511 0 0.846667 0.639399 0.807691 0.609936 0.639399 0.418387 0.609936 0.40334 0.807691 0.609936 0.775587 0.588589 0.609936 0.40334 0.588589 0.396312 0.951057 0.70224 0.894096 0.658823 0.70224 0.45049 0.658823 0.399492 0.894096 0.658823 0.846667 0.639399 0.658823 0.399492 0.639399 0.418387 0.45049 0.257444 0.399492 0.198111 0.257444 0 0.198111 0 0.399492 0.198111 0.418387 0.211616 0.198111 0 0.211616 0 0.129383 0.064747 0.179523 0.0899865 0.064747 -3.29313e-06 0.0899865 -2.84619e-06 0.179523 0.0899865 0.234303 0.117819 0.0899865 -2.84619e-06 0.117819 -2.38087e-06 0.278334 0.204027 0.429277 0.305232 0.204027 0.129383 0.305232 0.179523 0.429277 0.305232 0.587785 0.413719 0.305232 0.179523 0.413719 0.234303 2.91189e-12 -1.03633e-06 0.135412 0.0991172 -1.03633e-06 -2.07267e-06 0.0991172 0.0627922 0.135412 0.0991172 0.278334 0.204027 0.0991172 0.0627922 0.204027 0.129383 -2.07267e-06 -3.109e-06 0.0627922 0.0314016 -3.109e-06 -4.14534e-06 0.0314016 -3.72535e-06 0.0627922 0.0314016 0.129383 0.064747 0.0314016 -3.72535e-06 0.064747 -3.29313e-06 0.234303 0.117819 0.225273 0.113926 0.117819 -2.38087e-06 0.113926 -1.89141e-06 0.225273 0.113926 0.217777 0.111288 0.113926 -1.89141e-06 0.111288 -1.36745e-06 0.45049 0.325739 0.257444 0.171495 0.325739 0.217777 0.171495 0.111288 0.257444 0.171495 0 -7.85395e-07 0.171495 0.111288 -7.85395e-07 -1.36745e-06 0.587785 0.413719 0.512772 0.367852 0.413719 0.234303 0.367852 0.225273 0.512772 0.367852 0.45049 0.325739 0.367852 0.225273 0.325739 0.217777 
