# vtk DataFile Version 3.0
#This file was generated by the deal.II library on 2020/5/26 at 15:48:36
ASCII
DATASET UNSTRUCTURED_GRID

POINTS 896 double
-0.5 1 0
-0.531576 0.899461 0
-0.375 1 0
-0.418701 0.878116 0
-0.531576 0.899461 0
-0.563151 0.798922 0
-0.418701 0.878116 0
-0.462402 0.756232 0
-0.375 1 0
-0.418701 0.878116 0
-0.25 1 0
-0.305827 0.856772 0
-0.418701 0.878116 0
-0.462402 0.756232 0
-0.305827 0.856772 0
-0.361654 0.713543 0
-0.563151 0.798922 0
-0.594727 0.698382 0
-0.462402 0.756232 0
-0.506103 0.634349 0
-0.594727 0.698382 0
-0.626302 0.597843 0
-0.506103 0.634349 0
-0.549805 0.512465 0
-0.462402 0.756232 0
-0.506103 0.634349 0
-0.361654 0.713543 0
-0.41748 0.570315 0
-0.506103 0.634349 0
-0.549805 0.512465 0
-0.41748 0.570315 0
-0.473307 0.427086 0
-0.25 1 0
-0.305827 0.856772 0
-0.125 1 0
-0.192952 0.835427 0
-0.305827 0.856772 0
-0.361654 0.713543 0
-0.192952 0.835427 0
-0.260905 0.670854 0
-0.125 1 0
-0.192952 0.835427 0
2.7528e-12 1 0
-0.080078 0.814082 0
-0.192952 0.835427 0
-0.260905 0.670854 0
-0.080078 0.814082 0
-0.160156 0.628165 0
-0.361654 0.713543 0
-0.41748 0.570315 0
-0.260905 0.670854 0
-0.328857 0.506281 0
-0.41748 0.570315 0
-0.473307 0.427086 0
-0.328857 0.506281 0
-0.39681 0.341708 0
-0.260905 0.670854 0
-0.328857 0.506281 0
-0.160156 0.628165 0
-0.240234 0.442247 0
-0.328857 0.506281 0
-0.39681 0.341708 0
-0.240234 0.442247 0
-0.320312 0.25633 0
-1 1 0
-1 0.875 0
-0.875 1 0
-0.882894 0.881115 0
-1 0.875 0
-1 0.75 0
-0.882894 0.881115 0
-0.890788 0.76223 0
-0.875 1 0
-0.882894 0.881115 0
-0.75 1 0
-0.765788 0.88723 0
-0.882894 0.881115 0
-0.890788 0.76223 0
-0.765788 0.88723 0
-0.781576 0.774461 0
-1 0.75 0
-1 0.625 0
-0.890788 0.76223 0
-0.898682 0.643346 0
-1 0.625 0
-1 0.5 0
-0.898682 0.643346 0
-0.906576 0.524461 0
-0.890788 0.76223 0
-0.898682 0.643346 0
-0.781576 0.774461 0
-0.797363 0.661691 0
-0.898682 0.643346 0
-0.906576 0.524461 0
-0.797363 0.661691 0
-0.813151 0.548922 0
-0.75 1 0
-0.765788 0.88723 0
-0.625 1 0
-0.648682 0.893346 0
-0.765788 0.88723 0
-0.781576 0.774461 0
-0.648682 0.893346 0
-0.672363 0.786691 0
-0.625 1 0
-0.648682 0.893346 0
-0.5 1 0
-0.531576 0.899461 0
-0.648682 0.893346 0
-0.672363 0.786691 0
-0.531576 0.899461 0
-0.563151 0.798922 0
-0.781576 0.774461 0
-0.797363 0.661691 0
-0.672363 0.786691 0
-0.696045 0.680037 0
-0.797363 0.661691 0
-0.813151 0.548922 0
-0.696045 0.680037 0
-0.719727 0.573382 0
-0.672363 0.786691 0
-0.696045 0.680037 0
-0.563151 0.798922 0
-0.594727 0.698382 0
-0.696045 0.680037 0
-0.719727 0.573382 0
-0.594727 0.698382 0
-0.626302 0.597843 0
-1 0.5 0
-1 0.375 0
-0.906576 0.524461 0
-0.887451 0.409366 0
-1 0.375 0
-1 0.25 0
-0.887451 0.409366 0
-0.868327 0.294272 0
-0.906576 0.524461 0
-0.887451 0.409366 0
-0.813151 0.548922 0
-0.774902 0.443732 0
-0.887451 0.409366 0
-0.868327 0.294272 0
-0.774902 0.443732 0
-0.736654 0.338543 0
-1 0.25 0
-1 0.125 0
-0.868327 0.294272 0
-0.849202 0.179177 0
-1 0.125 0
-1 2.7528e-12 0
-0.849202 0.179177 0
-0.830078 0.0640824 0
-0.868327 0.294272 0
-0.849202 0.179177 0
-0.736654 0.338543 0
-0.698405 0.233354 0
-0.849202 0.179177 0
-0.830078 0.0640824 0
-0.698405 0.233354 0
-0.660156 0.128165 0
-0.813151 0.548922 0
-0.774902 0.443732 0
-0.719727 0.573382 0
-0.662353 0.478099 0
-0.774902 0.443732 0
-0.736654 0.338543 0
-0.662353 0.478099 0
-0.60498 0.382815 0
-0.719727 0.573382 0
-0.662353 0.478099 0
-0.626302 0.597843 0
-0.549805 0.512465 0
-0.662353 0.478099 0
-0.60498 0.382815 0
-0.549805 0.512465 0
-0.473307 0.427086 0
-0.736654 0.338543 0
-0.698405 0.233354 0
-0.60498 0.382815 0
-0.547607 0.287531 0
-0.698405 0.233354 0
-0.660156 0.128165 0
-0.547607 0.287531 0
-0.490234 0.192247 0
-0.60498 0.382815 0
-0.547607 0.287531 0
-0.473307 0.427086 0
-0.39681 0.341708 0
-0.547607 0.287531 0
-0.490234 0.192247 0
-0.39681 0.341708 0
-0.320312 0.25633 0
0.447449 0.460023 0
0.460587 0.345017 0
0.585587 0.470017 0
0.59544 0.352513 0
0.460587 0.345017 0
0.473724 0.230011 0
0.59544 0.352513 0
0.605293 0.235009 0
0.585587 0.470017 0
0.59544 0.352513 0
0.723724 0.480011 0
0.730293 0.360009 0
0.59544 0.352513 0
0.605293 0.235009 0
0.730293 0.360009 0
0.736862 0.240006 0
0.473724 0.230011 0
0.486862 0.115006 0
0.605293 0.235009 0
0.615147 0.117504 0
0.486862 0.115006 0
0.5 0 0
0.615147 0.117504 0
0.625 0 0
0.605293 0.235009 0
0.615147 0.117504 0
0.736862 0.240006 0
0.743431 0.120003 0
0.615147 0.117504 0
0.625 0 0
0.743431 0.120003 0
0.75 0 0
0.723724 0.480011 0
0.730293 0.360009 0
0.861862 0.490006 0
0.865147 0.367504 0
0.730293 0.360009 0
0.736862 0.240006 0
0.865147 0.367504 0
0.868431 0.245003 0
0.861862 0.490006 0
0.865147 0.367504 0
1 0.5 0
1 0.375 0
0.865147 0.367504 0
0.868431 0.245003 0
1 0.375 0
1 0.25 0
0.736862 0.240006 0
0.743431 0.120003 0
0.868431 0.245003 0
0.871716 0.122501 0
0.743431 0.120003 0
0.75 0 0
0.871716 0.122501 0
0.875 0 0
0.868431 0.245003 0
0.871716 0.122501 0
1 0.25 0
1 0.125 0
0.871716 0.122501 0
0.875 0 0
1 0.125 0
1 0 0
0.5 1 0
0.486862 0.865006 0
0.625 1 0
0.615147 0.867504 0
0.486862 0.865006 0
0.473724 0.730011 0
0.615147 0.867504 0
0.605293 0.735009 0
0.625 1 0
0.615147 0.867504 0
0.75 1 0
0.743431 0.870003 0
0.615147 0.867504 0
0.605293 0.735009 0
0.743431 0.870003 0
0.736862 0.740006 0
0.473724 0.730011 0
0.460587 0.595017 0
0.605293 0.735009 0
0.59544 0.602513 0
0.460587 0.595017 0
0.447449 0.460023 0
0.59544 0.602513 0
0.585587 0.470017 0
0.605293 0.735009 0
0.59544 0.602513 0
0.736862 0.740006 0
0.730293 0.610009 0
0.59544 0.602513 0
0.585587 0.470017 0
0.730293 0.610009 0
0.723724 0.480011 0
0.75 1 0
0.743431 0.870003 0
0.875 1 0
0.871716 0.872501 0
0.743431 0.870003 0
0.736862 0.740006 0
0.871716 0.872501 0
0.868431 0.745003 0
0.875 1 0
0.871716 0.872501 0
1 1 0
1 0.875 0
0.871716 0.872501 0
0.868431 0.745003 0
1 0.875 0
1 0.75 0
0.736862 0.740006 0
0.730293 0.610009 0
0.868431 0.745003 0
0.865147 0.617504 0
0.730293 0.610009 0
0.723724 0.480011 0
0.865147 0.617504 0
0.861862 0.490006 0
0.868431 0.745003 0
0.865147 0.617504 0
1 0.75 0
1 0.625 0
0.865147 0.617504 0
0.861862 0.490006 0
1 0.625 0
1 0.5 0
2.7528e-12 1 0
-0.080078 0.814082 0
0.125 1 0
0.061657 0.826813 0
-0.080078 0.814082 0
-0.160156 0.628165 0
0.061657 0.826813 0
-0.00168594 0.653626 0
0.125 1 0
0.061657 0.826813 0
0.25 1 0
0.203392 0.839544 0
0.061657 0.826813 0
-0.00168594 0.653626 0
0.203392 0.839544 0
0.156784 0.679088 0
-0.160156 0.628165 0
-0.240234 0.442247 0
-0.00168594 0.653626 0
-0.0650289 0.48044 0
-0.240234 0.442247 0
-0.320312 0.25633 0
-0.0650289 0.48044 0
-0.128372 0.307253 0
-0.00168594 0.653626 0
-0.0650289 0.48044 0
0.156784 0.679088 0
0.110176 0.518632 0
-0.0650289 0.48044 0
-0.128372 0.307253 0
0.110176 0.518632 0
0.0635683 0.358176 0
0.25 1 0
0.203392 0.839544 0
0.375 1 0
0.345127 0.852275 0
0.203392 0.839544 0
0.156784 0.679088 0
0.345127 0.852275 0
0.315254 0.70455 0
0.375 1 0
0.345127 0.852275 0
0.5 1 0
0.486862 0.865006 0
0.345127 0.852275 0
0.315254 0.70455 0
0.486862 0.865006 0
0.473724 0.730011 0
0.156784 0.679088 0
0.110176 0.518632 0
0.315254 0.70455 0
0.285381 0.556825 0
0.110176 0.518632 0
0.0635683 0.358176 0
0.285381 0.556825 0
0.255509 0.4091 0
0.315254 0.70455 0
0.285381 0.556825 0
0.473724 0.730011 0
0.460587 0.595017 0
0.285381 0.556825 0
0.255509 0.4091 0
0.460587 0.595017 0
0.447449 0.460023 0
-0.320312 0.25633 0
-0.240234 0.192247 0
-0.128372 0.307253 0
-0.0650289 0.23044 0
-0.240234 0.192247 0
-0.160156 0.128165 0
-0.0650289 0.23044 0
-0.00168594 0.153626 0
-0.128372 0.307253 0
-0.0650289 0.23044 0
0.0635683 0.358176 0
0.110176 0.268632 0
-0.0650289 0.23044 0
-0.00168594 0.153626 0
0.110176 0.268632 0
0.156784 0.179088 0
-0.160156 0.128165 0
-0.080078 0.0640824 0
-0.00168594 0.153626 0
0.061657 0.0768132 0
-0.080078 0.0640824 0
0 0 0
0.061657 0.0768132 0
0.125 0 0
-0.00168594 0.153626 0
0.061657 0.0768132 0
0.156784 0.179088 0
0.203392 0.089544 0
0.061657 0.0768132 0
0.125 0 0
0.203392 0.089544 0
0.25 0 0
0.0635683 0.358176 0
0.110176 0.268632 0
0.255509 0.4091 0
0.285381 0.306825 0
0.110176 0.268632 0
0.156784 0.179088 0
0.285381 0.306825 0
0.315254 0.20455 0
0.255509 0.4091 0
0.285381 0.306825 0
0.447449 0.460023 0
0.460587 0.345017 0
0.285381 0.306825 0
0.315254 0.20455 0
0.460587 0.345017 0
0.473724 0.230011 0
0.156784 0.179088 0
0.203392 0.089544 0
0.315254 0.20455 0
0.345127 0.102275 0
0.203392 0.089544 0
0.25 0 0
0.345127 0.102275 0
0.375 0 0
0.315254 0.20455 0
0.345127 0.102275 0
0.473724 0.230011 0
0.486862 0.115006 0
0.345127 0.102275 0
0.375 0 0
0.486862 0.115006 0
0.5 0 0
-0.867215 -0.635484 0
-0.83791 -0.664113 0
-0.826192 -0.554901 0
-0.791518 -0.588051 0
-0.83791 -0.664113 0
-0.808605 -0.692742 0
-0.791518 -0.588051 0
-0.756843 -0.6212 0
-0.826192 -0.554901 0
-0.791518 -0.588051 0
-0.785169 -0.474318 0
-0.745126 -0.511988 0
-0.791518 -0.588051 0
-0.756843 -0.6212 0
-0.745126 -0.511988 0
-0.705082 -0.549659 0
-0.808605 -0.692742 0
-0.779299 -0.721371 0
-0.756843 -0.6212 0
-0.722169 -0.65435 0
-0.779299 -0.721371 0
-0.749994 -0.75 0
-0.722169 -0.65435 0
-0.687495 -0.6875 0
-0.756843 -0.6212 0
-0.722169 -0.65435 0
-0.705082 -0.549659 0
-0.665039 -0.587329 0
-0.722169 -0.65435 0
-0.687495 -0.6875 0
-0.665039 -0.587329 0
-0.624995 -0.625 0
-0.785169 -0.474318 0
-0.745126 -0.511988 0
-0.744146 -0.393734 0
-0.698733 -0.435926 0
-0.745126 -0.511988 0
-0.705082 -0.549659 0
-0.698733 -0.435926 0
-0.653321 -0.478117 0
-0.744146 -0.393734 0
-0.698733 -0.435926 0
-0.703123 -0.313151 0
-0.652341 -0.359863 0
-0.698733 -0.435926 0
-0.653321 -0.478117 0
-0.652341 -0.359863 0
-0.60156 -0.406576 0
-0.705082 -0.549659 0
-0.665039 -0.587329 0
-0.653321 -0.478117 0
-0.607908 -0.520309 0
-0.665039 -0.587329 0
-0.624995 -0.625 0
-0.607908 -0.520309 0
-0.562496 -0.5625 0
-0.653321 -0.478117 0
-0.607908 -0.520309 0
-0.60156 -0.406576 0
-0.550778 -0.453288 0
-0.607908 -0.520309 0
-0.562496 -0.5625 0
-0.550778 -0.453288 0
-0.499996 -0.5 0
-1 -0.5 0
-0.966804 -0.533871 0
-1 -0.375 0
-0.956548 -0.419975 0
-0.966804 -0.533871 0
-0.933608 -0.567742 0
[...]
POINT_DATA 896
SCALARS solution double 1
LOOKUP_TABLE default
1.0916 1.02908 1.05365 0.977335 1.02908 0.966554 0.977335 0.900936 1.05365 0.977335 1.0174 0.92634 0.977335 0.900936 0.92634 0.834876 0.966554 0.904194 0.900936 0.824832 0.904194 0.84223 0.824832 0.749568 0.900936 0.824832 0.834876 0.743698 0.824832 0.749568 0.743698 0.653966 1.0174 0.92634 0.983124 0.876425 0.92634 0.834876 0.876425 0.768556 0.983124 0.876425 0.951057 0.827969 0.876425 0.768556 0.827969 0.70228 0.834876 0.743698 0.768556 0.660572 0.743698 0.653966 0.660572 0.554762 0.768556 0.660572 0.70228 0.575211 0.660572 0.554762 0.575211 0.450933 1.25493 1.17155 1.21285 1.1347 1.17155 1.08777 1.1347 1.05624 1.21285 1.1347 1.17146 1.09853 1.1347 1.05624 1.09853 1.02539 1.08777 1.00372 1.05624 0.977614 1.00372 0.919581 0.977614 0.899028 1.05624 0.977614 1.02539 0.952203 0.977614 0.899028 0.952203 0.87917 1.17146 1.09853 1.13096 1.06325 1.09853 1.02539 1.06325 0.995424 1.13096 1.06325 1.0916 1.02908 1.06325 0.995424 1.02908 0.966554 1.02539 0.952203 0.995424 0.92766 0.952203 0.87917 0.92766 0.860172 0.995424 0.92766 0.966554 0.904194 0.92766 0.860172 0.904194 0.84223 0.919581 0.835608 0.899028 0.812126 0.835608 0.752092 0.812126 0.724744 0.899028 0.812126 0.87917 0.789709 0.812126 0.724744 0.789709 0.698785 0.752092 0.669369 0.724744 0.637145 0.669369 0.587785 0.637145 0.549685 0.724744 0.637145 0.698785 0.606446 0.637145 0.549685 0.606446 0.512848 0.87917 0.789709 0.860172 0.768708 0.789709 0.698785 0.768708 0.674882 0.860172 0.768708 0.84223 0.749568 0.768708 0.674882 0.749568 0.653966 0.698785 0.606446 0.674882 0.578374 0.606446 0.512848 0.578374 0.478829 0.674882 0.578374 0.653966 0.554762 0.578374 0.478829 0.554762 0.450933 0.418424 0.316153 0.409538 0.308875 0.316153 0.211771 0.308875 0.206656 0.409538 0.308875 0.403356 0.303926 0.308875 0.206656 0.303926 0.203251 0.211771 0.106002 0.206656 0.103439 0.106002 0 0.103439 0 0.206656 0.103439 0.203251 0.101757 0.103439 0 0.101757 0 0.403356 0.303926 0.399118 0.300583 0.303926 0.203251 0.300583 0.200982 0.399118 0.300583 0.396312 0.29839 0.300583 0.200982 0.29839 0.199511 0.203251 0.101757 0.200982 0.100648 0.101757 0 0.100648 0 0.200982 0.100648 0.199511 0.0999378 0.100648 0 0.0999378 0 0.846667 0.744534 0.826218 0.726106 0.744534 0.639442 0.726106 0.623469 0.826218 0.726106 0.807691 0.709864 0.726106 0.623469 0.709864 0.609946 0.639442 0.530923 0.623469 0.518034 0.530923 0.418424 0.518034 0.409538 0.623469 0.518034 0.609946 0.507805 0.518034 0.409538 0.507805 0.403356 0.807691 0.709864 0.79088 0.695507 0.709864 0.609946 0.695507 0.598439 0.79088 0.695507 0.775587 0.682762 0.695507 0.598439 0.682762 0.588589 0.609946 0.507805 0.598439 0.499639 0.507805 0.403356 0.499639 0.399118 0.598439 0.499639 0.588589 0.493085 0.499639 0.399118 0.493085 0.396312 0.951057 0.827969 0.921359 0.801339 0.827969 0.70228 0.801339 0.677216 0.921359 0.801339 0.894096 0.778738 0.801339 0.677216 0.778738 0.65893 0.70228 0.575211 0.677216 0.548357 0.575211 0.450933 0.548357 0.414745 0.677216 0.548357 0.65893 0.53339 0.548357 0.414745 0.53339 0.399909 0.894096 0.778738 0.869236 0.759942 0.778738 0.65893 0.759942 0.646729 0.869236 0.759942 0.846667 0.744534 0.759942 0.646729 0.744534 0.639442 0.65893 0.53339 0.646729 0.528623 0.53339 0.399909 0.528623 0.404111 0.646729 0.528623 0.639442 0.530923 0.528623 0.404111 0.530923 0.418424 0.450933 0.358147 0.414745 0.31705 0.358147 0.258765 0.31705 0.212804 0.414745 0.31705 0.399909 0.301244 0.31705 0.212804 0.301244 0.199596 0.258765 0.147914 0.212804 0.101469 0.147914 0 0.101469 0 0.212804 0.101469 0.199596 0.0977005 0.101469 0 0.0977005 0 0.399909 0.301244 0.404111 0.304581 0.301244 0.199596 0.304581 0.203033 0.404111 0.304581 0.418424 0.316153 0.304581 0.203033 0.316153 0.211771 0.199596 0.0977005 0.203033 0.100846 0.0977005 0 0.100846 0 0.203033 0.100846 0.211771 0.106002 0.100846 0 0.106002 0 0.129382 0.0970845 0.153958 0.115569 0.0970845 0.0647468 0.115569 0.0770988 0.153958 0.115569 0.179533 0.134838 0.115569 0.0770988 0.134838 0.0899922 0.0647468 0.0323804 0.0770988 0.0385675 0.0323804 -3.29313e-06 0.0385675 -3.0717e-06 0.0770988 0.0385675 0.0899922 0.0450322 0.0385675 -3.0717e-06 0.0450322 -2.84619e-06 0.179533 0.134838 0.206263 0.155027 0.134838 0.0899922 0.155027 0.103529 0.206263 0.155027 0.234338 0.17631 0.155027 0.103529 0.17631 0.117842 0.0899922 0.0450322 0.103529 0.0518292 0.0450322 -2.84619e-06 0.0518292 -2.61612e-06 0.103529 0.0518292 0.117842 0.059032 0.0518292 -2.61612e-06 0.059032 -2.38087e-06 0.278334 0.241231 0.352802 0.303411 0.241231 0.204028 0.303411 0.253784 0.352802 0.303411 0.429277 0.367503 0.303411 0.253784 0.367503 0.305246 0.204028 0.16674 0.253784 0.203954 0.16674 0.129382 0.203954 0.153958 0.253784 0.203954 0.305246 0.242564 0.203954 0.153958 0.242564 0.179533 0.429277 0.367503 0.507666 0.433538 0.367503 0.305246 0.433538 0.358536 0.507666 0.433538 0.587785 0.501485 0.433538 0.358536 0.501485 0.41375 0.305246 0.242564 0.358536 0.282737 0.242564 0.179533 0.282737 0.206263 0.358536 0.282737 0.41375 0.32465 0.282737 0.206263 0.32465 0.234338 2.91189e-12 -5.18165e-07 0.0668206 0.057859 -5.18165e-07 -1.03633e-06 0.057859 0.0488966 0.0668206 0.057859 0.135412 0.117268 0.057859 0.0488966 0.117268 0.0991147 -1.03633e-06 -1.5545e-06 0.0488966 0.0399335 -1.5545e-06 -2.07267e-06 0.0399335 0.0309699 0.0488966 0.0399335 0.0991147 0.0809542 0.0399335 0.0309699 0.0809542 0.062788 0.135412 0.117268 0.205887 0.178352 0.117268 0.0991147 0.178352 0.15078 0.205887 0.178352 0.278334 0.241231 0.178352 0.15078 0.241231 0.204028 0.0991147 0.0809542 0.15078 0.123179 0.0809542 0.062788 0.123179 0.095553 0.15078 0.123179 0.204028 0.16674 0.123179 0.095553 0.16674 0.129382 -2.07267e-06 -2.59084e-06 0.0309699 0.0232273 -2.59084e-06 -3.109e-06 0.0232273 0.015484 0.0309699 0.0232273 0.062788 0.0470955 0.0232273 0.015484 0.0470955 0.0313987 -3.109e-06 -3.62717e-06 0.015484 0.00774026 -3.62717e-06 -4.14534e-06 0.00774026 -3.93674e-06 0.015484 0.00774026 0.0313987 0.0156986 0.00774026 -3.93674e-06 0.0156986 -3.72535e-06 0.062788 0.0470955 0.095553 0.0716826 0.0470955 0.0313987 0.0716826 0.047797 0.095553 0.0716826 0.129382 0.0970845 0.0716826 0.047797 0.0970845 0.0647468 0.0313987 0.0156986 0.047797 0.0239003 0.0156986 -3.72535e-06 0.0239003 -3.5109e-06 0.047797 0.0239003 0.0647468 0.0323804 0.0239003 -3.5109e-06 0.0323804 -3.29313e-06 0.234338 0.17631 0.229708 0.173044 0.17631 0.117842 0.173044 0.115802 0.229708 0.173044 0.225349 0.170036 0.173044 0.115802 0.170036 0.113973 0.117842 0.059032 0.115802 0.0580785 0.059032 -2.38087e-06 0.0580785 -2.13965e-06 0.115802 0.0580785 0.113973 0.0572502 0.0580785 -2.13965e-06 0.0572502 -1.89141e-06 0.225349 0.170036 0.221366 0.167391 0.170036 0.113973 0.167391 0.112447 0.221366 0.167391 0.217912 0.165274 0.167391 0.112447 0.165274 0.111375 0.113973 0.0572502 0.112447 0.0566052 0.0572502 -1.89141e-06 0.0566052 -1.63471e-06 0.112447 0.0566052 0.111375 0.0562437 0.0566052 -1.63471e-06 0.0562437 -1.36745e-06 0.450933 0.386687 0.358147 0.30185 0.386687 0.325981 0.30185 0.250953 0.358147 0.30185 0.258765 0.211192 0.30185 0.250953 0.211192 0.171978 0.325981 0.269694 0.250953 0.205696 0.269694 0.217912 0.205696 0.165274 0.250953 0.205696 0.171978 0.139409 0.205696 0.165274 0.139409 0.111375 0.258765 0.211192 0.147914 0.111759 0.211192 0.171978 0.111759 0.0883156 0.147914 0.111759 0 -4.51091e-07 0.111759 0.0883156 -4.51091e-07 -7.85395e-07 0.171978 0.139409 0.0883156 0.0707625 0.139409 0.111375 0.0707625 0.0562437 0.0883156 0.0707625 -7.85395e-07 -1.08633e-06 0.0707625 0.0562437 -1.08633e-06 -1.36745e-06 0.587785 0.501485 0.549685 0.470536 0.501485 0.41375 0.470536 0.390666 0.549685 0.470536 0.512848 0.440307 0.470536 0.390666 0.440307 0.367959 0.41375 0.32465 0.390666 0.310292 0.32465 0.234338 0.310292 0.229708 0.390666 0.310292 0.367959 0.29618 0.310292 0.229708 0.29618 0.225349 0.512848 0.440307 0.478829 0.411707 0.440307 0.367959 0.411707 0.346088 0.478829 0.411707 0.450933 0.386687 0.411707 0.346088 0.386687 0.325981 0.367959 0.29618 0.346088 0.282523 0.29618 0.225349 0.282523 0.221366 0.346088 0.282523 0.325981 0.269694 0.282523 0.221366 0.269694 0.217912 
