# vtk DataFile Version 3.0
#This file was generated by the deal.II library on 2020/5/26 at 18:52:22
ASCII
DATASET UNSTRUCTURED_GRID

POINTS 18612 double
0 0 0
0.466667 0 0
0 0.4 0
0.45119 0.4 0
0.466667 0 0
0.933333 0 0
0.45119 0.4 0
0.902381 0.4 0
0.483333 23.6 0
0.966667 23.6 0
0.466667 24 0
0.933333 24 0
0 23.6 0
0.483333 23.6 0
0 24 0
0.466667 24 0
0 23.2 0
0.5 23.2 0
0 23.6 0
0.483333 23.6 0
0.5 23.2 0
1 23.2 0
0.483333 23.6 0
0.966667 23.6 0
0.933333 0 0
1.4 0 0
0.902381 0.4 0
1.35357 0.4 0
1.4 0 0
1.86667 0 0
1.35357 0.4 0
1.80476 0.4 0
1.45 23.6 0
1.93333 23.6 0
1.4 24 0
1.86667 24 0
0.966667 23.6 0
1.45 23.6 0
0.933333 24 0
1.4 24 0
1 23.2 0
1.5 23.2 0
0.966667 23.6 0
1.45 23.6 0
1.86667 0 0
2.33333 0 0
1.80476 0.4 0
2.25595 0.4 0
2.33333 0 0
2.8 0 0
2.25595 0.4 0
2.70714 0.4 0
2.41667 23.6 0
2.9 23.6 0
2.33333 24 0
2.8 24 0
1.93333 23.6 0
2.41667 23.6 0
1.86667 24 0
2.33333 24 0
2.8 0 0
3.26667 0 0
2.70714 0.4 0
3.15833 0.4 0
3.26667 0 0
3.73333 0 0
3.15833 0.4 0
3.60952 0.4 0
3.38333 23.6 0
3.86667 23.6 0
3.26667 24 0
3.73333 24 0
2.9 23.6 0
3.38333 23.6 0
2.8 24 0
3.26667 24 0
3.73333 0 0
4.2 0 0
3.60952 0.4 0
4.06071 0.400002 0
4.2 0 0
4.66667 0 0
4.06071 0.400002 0
4.51187 0.400017 0
4.35 23.6 0
4.83333 23.6 0
4.2 24 0
4.66667 24 0
3.86667 23.6 0
4.35 23.6 0
3.73333 24 0
4.2 24 0
4.66667 0 0
5.13333 0 0
4.51187 0.400017 0
4.96274 0.40018 0
5.13333 0 0
5.6 0 0
4.96274 0.40018 0
5.412 0.401188 0
5.31667 23.6 0
5.8 23.6 0
5.13333 24 0
5.6 24 0
4.83333 23.6 0
5.31667 23.6 0
4.66667 24 0
5.13333 24 0
7.7656 0.408656 0
8.08564 0.489853 0
7.625 0.8 0
8 0.8 0
7.37297 0.372717 0
7.7656 0.408656 0
7.25 0.8 0
7.625 0.8 0
7.46667 0 0
7.93333 0 0
7.37297 0.372717 0
7.7656 0.408656 0
7.93333 0 0
8.4 0 0
7.7656 0.408656 0
8.08564 0.489853 0
5.6 0 0
6.06667 0 0
5.412 0.401188 0
5.851 0.407784 0
6.06667 0 0
6.53333 0 0
5.851 0.407784 0
6.22598 0.450874 0
8.4 1.5 0
8.20238 1.40048 0
8.4 1 0
8.21539 0.946782 0
8.4 2 0
8.20022 1.8875 0
8.4 1.5 0
8.20238 1.40048 0
8 1.77391 0
8 1.28696 0
8.20022 1.8875 0
8.20238 1.40048 0
8 1.28696 0
8 0.8 0
8.20238 1.40048 0
8.21539 0.946782 0
8.21496 23.0543 0
8.2025 22.599 0
8.4 23 0
8.4 22.5 0
8 23.2 0
8 22.713 0
8.21496 23.0543 0
8.2025 22.599 0
8 22.2261 0
8.20035 22.1121 0
8 22.713 0
8.2025 22.599 0
8.20035 22.1121 0
8.4 22 0
8.2025 22.599 0
8.4 22.5 0
6.28333 23.6 0
6.76667 23.6 0
6.06667 24 0
6.53333 24 0
5.8 23.6 0
6.28333 23.6 0
5.6 24 0
6.06667 24 0
6 23.2 0
6.5 23.2 0
5.8 23.6 0
6.28333 23.6 0
6.5 23.2 0
7 23.2 0
6.28333 23.6 0
6.76667 23.6 0
7.69489 23.5856 0
7.5 23.2 0
8.06391 23.5091 0
8 23.2 0
7.69489 23.5856 0
8.06391 23.5091 0
7.93333 24 0
8.4 24 0
7.23333 23.6 0
7.69489 23.5856 0
7.46667 24 0
7.93333 24 0
7.23333 23.6 0
7 23.2 0
7.69489 23.5856 0
7.5 23.2 0
8 1.77391 0
8.20022 1.8875 0
8 2.26087 0
8.20003 2.3805 0
8.4 2 0
8.4 2.5 0
8.20022 1.8875 0
8.20003 2.3805 0
8.4 2.5 0
8.4 3 0
8.20003 2.3805 0
8.2 2.87391 0
8.20005 21.6194 0
8.4 21.5 0
8.20035 22.1121 0
8.4 22 0
8 21.7391 0
8.20005 21.6194 0
8 22.2261 0
8.20035 22.1121 0
8 21.2522 0
8.2 21.1261 0
8 21.7391 0
8.20005 21.6194 0
8.2 21.1261 0
8.4 21 0
8.20005 21.6194 0
8.4 21.5 0
8.4 3 0
8.4 3.5 0
8.2 2.87391 0
8.2 3.36739 0
8.4 3.5 0
8.4 4 0
8.2 3.36739 0
8.2 3.86087 0
8.2 20.6326 0
8.4 20.5 0
8.2 21.1261 0
8.4 21 0
8.2 20.1391 0
8.4 20 0
8.2 20.6326 0
8.4 20.5 0
7 0 0
7.46667 0 0
7.00198 0.331094 0
7.37297 0.372717 0
7.00198 0.331094 0
7.37297 0.372717 0
6.94022 0.576588 0
7.25 0.8 0
7.00198 0.331094 0
6.94022 0.576588 0
6.69426 0.367442 0
6.75692 0.535711 0
7 0 0
7.00198 0.331094 0
6.53333 0 0
6.69426 0.367442 0
8.4 4.5 0
8.2 4.35435 0
8.4 4 0
8.2 3.86087 0
8.4 5 0
8.2 4.84783 0
8.4 4.5 0
8.2 4.35435 0
8.2 19.6457 0
8.4 19.5 0
8.2 20.1391 0
8.4 20 0
8.2 19.1522 0
8.4 19 0
8.2 19.6457 0
8.4 19.5 0
8.4 5.5 0
8.2 5.3413 0
8.4 5 0
8.2 4.84783 0
8.4 6 0
8.2 5.83478 0
8.4 5.5 0
8.2 5.3413 0
8.2 18.6587 0
8.4 18.5 0
8.2 19.1522 0
8.4 19 0
8.2 18.1652 0
8.4 18 0
8.2 18.6587 0
8.4 18.5 0
8.4 6 0
8.4 6.5 0
8.2 5.83478 0
8.2 6.32826 0
8.4 6.5 0
8.4 7 0
8.2 6.32826 0
8.2 6.82174 0
8.2 17.6717 0
8.4 17.5 0
8.2 18.1652 0
8.4 18 0
8.2 17.1783 0
8.4 17 0
8.2 17.6717 0
8.4 17.5 0
8.4 7.5 0
8.2 7.31522 0
8.4 7 0
8.2 6.82174 0
8.4 8 0
8.2 7.8087 0
8.4 7.5 0
8.2 7.31522 0
8.2 16.6848 0
8.4 16.5 0
8.2 17.1783 0
8.4 17 0
8.2 16.1913 0
8.4 16 0
8.2 16.6848 0
8.4 16.5 0
8.4 8 0
8.4 8.5 0
8.2 7.8087 0
8.2 8.30217 0
8.4 8.5 0
8.4 9 0
8.2 8.30217 0
8.2 8.79565 0
8.2 15.6978 0
8.4 15.5 0
8.2 16.1913 0
8.4 16 0
8.2 15.2043 0
8.4 15 0
8.2 15.6978 0
8.4 15.5 0
8.4 9 0
8.4 9.5 0
8.2 8.79565 0
8.2 9.28913 0
8.4 9.5 0
8.4 10 0
8.2 9.28913 0
8.2 9.78261 0
8.2 14.7109 0
8.4 14.5 0
8.2 15.2043 0
8.4 15 0
8.2 14.2174 0
8.4 14 0
8.2 14.7109 0
8.4 14.5 0
8.4 10.5 0
8.2 10.2761 0
8.4 10 0
8.2 9.78261 0
8.4 11 0
8.2 10.7696 0
8.4 10.5 0
8.2 10.2761 0
8.2 13.7239 0
8.4 13.5 0
8.2 14.2174 0
8.4 14 0
8.2 13.2304 0
8.4 13 0
8.2 13.7239 0
8.4 13.5 0
8.4 11.5 0
8.2 11.263 0
8.4 11 0
8.2 10.7696 0
8.4 12 0
8.2 11.7565 0
8.4 11.5 0
8.2 11.263 0
8.2 12.737 0
8.4 12.5 0
8.2 13.2304 0
8.4 13 0
8.2 12.2435 0
8.4 12 0
8.2 12.737 0
8.4 12.5 0
6.47056 0.554541 0
6.65423 0.648139 0
6.3 0.8 0
6.5 0.8 0
6.22598 0.450874 0
6.47056 0.554541 0
6.1 0.8 0
6.3 0.8 0
6.53333 0 0
6.69426 0.367442 0
6.22598 0.450874 0
6.47056 0.554541 0
6.69426 0.367442 0
6.75692 0.535711 0
6.47056 0.554541 0
6.65423 0.648139 0
6.94022 0.576588 0
7.25 0.8 0
6.82768 0.687981 0
6.875 0.8 0
6.82768 0.687981 0
6.875 0.8 0
6.65423 0.648139 0
6.5 0.8 0
6.94022 0.576588 0
6.82768 0.687981 0
6.75692 0.535711 0
6.65423 0.648139 0
7.23333 23.6 0
7 23.7333 0
7 23.2 0
6.76667 23.6 0
7.23333 23.6 0
7.46667 24 0
7 23.7333 0
7 24 0
7 23.7333 0
7 24 0
6.76667 23.6 0
6.53333 24 0
8.4 0 0
8.4 0.5 0
8.08564 0.489853 0
8.24539 0.628305 0
8.4 0.5 0
8.4 1 0
8.24539 0.628305 0
8.21539 0.946782 0
8.08564 0.489853 0
8.24539 0.628305 0
8 0.8 0
8.21539 0.946782 0
8.2 12.2435 0
8.13333 12 0
8.4 12 0
8.2 11.7565 0
8.2409 23.3709 0
8.21496 23.0543 0
8.4 23.5 0
8.4 23 0
8.06391 23.5091 0
8.2409 23.3709 0
8.4 24 0
8.4 23.5 0
8.06391 23.5091 0
8 23.2 0
8.2409 23.3709 0
8.21496 23.0543 0
3.92285 19.2089 0
4.35873 19.2071 0
3.92402 19.6155 0
4.36024 19.6131 0
3.48654 19.2104 0
3.92285 19.2089 0
3.48709 19.6173 0
3.92402 19.6155 0
3.04979 19.2095 0
3.48654 19.2104 0
3.04963 19.6194 0
3.48709 19.6173 0
2.61306 19.209 0
3.04979 19.2095 0
2.61199 19.618 0
3.04963 19.6194 0
3.04985 20.8074 0
3.4864 20.8076 0
3.05 21.2 0
3.48571 21.2 0
2.6132 20.8075 0
3.04985 20.8074 0
2.61429 21.2 0
3.05 21.2 0
2.61227 20.4138 0
3.04975 20.4138 0
2.6132 20.8075 0
3.04985 20.8074 0
3.04975 20.4138 0
3.48707 20.4145 0
3.04985 20.8074 0
3.4864 20.8076 0
3.04974 20.0186 0
3.48724 20.0176 0
3.04975 20.4138 0
3.48707 20.4145 0
2.61181 20.0173 0
3.04974 20.0186 0
2.61227 20.4138 0
3.04975 20.4138 0
2.61199 19.618 0
3.04963 19.6194 0
2.61181 20.0173 0
3.04974 20.0186 0
3.04963 19.6194 0
3.48709 19.6173 0
3.04974 20.0186 0
3.48724 20.0176 0
0.432966 19.604 0
0.866169 19.6083 0
0.432331 20.0047 0
0.865158 20.0094 0
0.432331 20.0047 0
0.865158 20.0094 0
0.431771 20.4049 0
0.864168 20.4095 0
0 20 0
0.432331 20.0047 0
0 20.4 0
0.431771 20.4049 0
0 19.6 0
0.432966 19.604 0
0 20 0
0.432331 20.0047 0
5.23131 20.0079 0
5.66598 20.0043 0
5.23131 20.4073 0
5.66612 20.4043 0
5.23107 19.6073 0
5.66553 19.6034 0
5.23131 20.0079 0
5.66598 20.0043 0
5.66553 19.6034 0
6.1 19.6 0
5.66598 20.0043 0
6.1 20 0
5.66598 20.0043 0
6.1 20 0
5.66612 20.4043 0
6.1 20.4 0
0 20.4 0
0.431771 20.4049 0
0 20.8 0
0.433758 20.8025 0
0.431771 20.4049 0
0.864168 20.4095 0
0.433758 20.8025 0
0.867586 20.8051 0
4.35873 19.2071 0
4.79445 19.2057 0
4.36024 19.6131 0
4.79575 19.61 0
4.79445 19.2057 0
5.22993 19.2041 0
4.79575 19.61 0
5.23107 19.6073 0
5.66501 19.202 0
6.1 19.2 0
5.66553 19.6034 0
6.1 19.6 0
5.22993 19.2041 0
5.66501 19.202 0
5.23107 19.6073 0
5.66553 19.6034 0
0.434142 19.2024 0
0.868611 19.2046 0
0.432966 19.604 0
0.866169 19.6083 0
0 19.2 0
0.434142 19.2024 0
0 19.6 0
0.432966 19.604 0
5.23131 20.4073 0
5.66612 20.4043 0
5.23046 20.8047 0
5.66527 20.8023 0
5.66612 20.4043 0
6.1 20.4 0
5.66527 20.8023 0
6.1 20.8 0
1.30395 19.2062 0
1.73965 19.2079 0
1.30084 19.6116 0
1.73679 19.6143 0
0.868611 19.2046 0
1.30395 19.2062 0
0.866169 19.6083 0
1.30084 19.6116 0
2.17624 19.2085 0
2.61306 19.209 0
2.17407 19.6159 0
2.61199 19.618 0
1.73965 19.2079 0
2.17624 19.2085 0
1.73679 19.6143 0
2.17407 19.6159 0
1.30084 19.6116 0
1.73679 19.6143 0
1.30041 20.0122 0
1.73639 20.0151 0
1.30041 20.0122 0
1.73639 20.0151 0
1.30061 20.4111 0
1.73674 20.4137 0
0.865158 20.0094 0
1.30041 20.0122 0
0.864168 20.4095 0
1.30061 20.4111 0
0.866169 19.6083 0
1.30084 19.6116 0
0.865158 20.0094 0
1.30041 20.0122 0
2.17646 20.8072 0
2.6132 20.8075 0
2.17857 21.2 0
2.61429 21.2 0
1.73674 20.4137 0
2.1748 20.413 0
1.73953 20.8074 0
2.17646 20.8072 0
2.1748 20.413 0
2.61227 20.4138 0
2.17646 20.8072 0
2.6132 20.8075 0
1.73679 19.6143 0
2.17407 19.6159 0
1.73639 20.0151 0
2.17416 20.0157 0
2.17407 19.6159 0
2.61199 19.618 0
2.17416 20.0157 0
2.61181 20.0173 0
2.17416 20.0157 0
2.61181 20.0173 0
2.1748 20.413 0
2.61227 20.4138 0
1.73639 20.0151 0
2.17416 20.0157 0
1.73674 20.4137 0
2.1748 20.413 0
4.79646 20.0118 0
5.23131 20.0079 0
4.79621 20.4106 0
5.23131 20.4073 0
4.36112 20.0161 0
4.79646 20.0118 0
4.36052 20.4134 0
4.79621 20.4106 0
4.36024 19.6131 0
4.79575 19.61 0
4.36112 20.0161 0
4.79646 20.0118 0
4.79575 19.61 0
5.23107 19.6073 0
4.79646 20.0118 0
5.23131 20.0079 0
0.864168 20.4095 0
1.30061 20.4111 0
0.867586 20.8051 0
1.30266 20.807 0
1.30061 20.4111 0
1.73674 20.4137 0
1.30266 20.807 0
1.73953 20.8074 0
3.92407 20.4144 0
4.36052 20.4134 0
3.9228 20.8076 0
4.35922 20.808 0
3.9228 20.8076 0
4.35922 20.808 0
3.92143 21.2 0
4.35714 21.2 0
3.4864 20.8076 0
3.9228 20.8076 0
3.48571 21.2 0
3.92143 21.2 0
3.48707 20.4145 0
3.92407 20.4144 0
3.4864 20.8076 0
3.9228 20.8076 0
4.36052 20.4134 0
4.79621 20.4106 0
4.35922 20.808 0
4.79509 20.8066 0
4.79621 20.4106 0
5.23131 20.4073 0
4.79509 20.8066 0
[...]
POINT_DATA 18612
SCALARS solution double 1
LOOKUP_TABLE default
8.87805 8.6647 8.84306 8.63033 8.6647 8.28849 8.63033 8.3026 2.26317 2.24989 2.2604 2.24273 2.26772 2.26317 2.27089 2.2604 2.26981 2.27251 2.26772 2.26317 2.27251 2.26311 2.26317 2.24989 8.28849 7.86601 8.3026 7.92288 7.86601 7.43017 7.92288 7.52037 2.22864 2.20091 2.21879 2.1898 2.24989 2.22864 2.24273 2.21879 2.26311 2.2434 2.24989 2.22864 7.43017 6.99605 7.52037 7.11172 6.99605 6.57208 7.11172 6.70714 2.16825 2.13189 2.15691 2.12106 2.20091 2.16825 2.1898 2.15691 6.57208 6.16312 6.70714 6.31293 6.16312 5.77186 6.31293 5.93286 2.09277 2.05156 2.08296 2.04313 2.13189 2.09277 2.12106 2.08296 5.77186 5.39958 5.93286 5.56903 5.39958 5.0467 5.56903 5.22249 2.00871 1.96458 2.00197 1.95982 2.05156 2.00871 2.04313 2.00197 5.0467 4.71288 5.22249 4.89388 4.71288 4.39673 4.89388 4.58442 1.91949 1.87381 1.91702 1.87399 1.96458 1.91949 1.95982 1.91702 3.17532 3.01818 3.2473 2.98331 3.37633 3.17532 3.46595 3.2473 3.29866 3.10555 3.37633 3.17532 3.10555 2.96622 3.17532 3.01818 4.39673 4.09442 4.58442 4.30077 4.09442 3.80368 4.30077 4.07577 2.77727 2.80028 2.8004 2.85919 2.80151 2.80812 2.77727 2.80028 2.81318 2.8224 2.80812 2.80028 2.8224 2.98331 2.80028 2.85919 1.65331 1.64124 1.64658 1.634 1.67035 1.64748 1.65331 1.64124 1.64197 1.63537 1.64748 1.64124 1.63537 1.62693 1.64124 1.634 1.8281 1.78312 1.8313 1.78968 1.87381 1.8281 1.87399 1.8313 1.87222 1.8222 1.87381 1.8281 1.8222 1.77241 1.8281 1.78312 1.7022 1.72351 1.67374 1.67035 1.7022 1.67374 1.68076 1.65203 1.74122 1.7022 1.71328 1.68076 1.74122 1.77241 1.7022 1.72351 2.81318 2.80812 2.84448 2.84301 2.80151 2.84064 2.80812 2.84301 2.84064 2.88226 2.84301 2.88522 1.63568 1.62615 1.63537 1.62693 1.64343 1.63568 1.64197 1.63537 1.65025 1.64134 1.64343 1.63568 1.64134 1.63091 1.63568 1.62615 2.88226 2.92095 2.88522 2.92706 2.92095 2.95324 2.92706 2.96456 1.65142 1.64031 1.64134 1.63091 1.66569 1.65407 1.65142 1.64031 3.53454 3.29866 3.57845 3.37633 3.57845 3.37633 3.63964 3.46595 3.57845 3.63964 3.76728 3.74999 3.53454 3.57845 3.80368 3.76728 2.9765 2.99459 2.95324 2.96456 2.98937 3.01489 2.9765 2.99459 1.68505 1.67298 1.66569 1.65407 1.71122 1.69861 1.68505 1.67298 2.99185 3.02458 2.98937 3.01489 2.98488 3.02409 2.99185 3.02458 1.74577 1.73246 1.71122 1.69861 1.78912 1.77501 1.74577 1.73246 2.98488 2.96974 3.02409 3.01455 2.96974 2.94774 3.01455 2.9973 1.84031 1.8254 1.78912 1.77501 1.89758 1.882 1.84031 1.8254 2.91999 2.97357 2.94774 2.9973 2.88741 2.94443 2.91999 2.97357 1.95911 1.94298 1.89758 1.882 2.02329 2.00673 1.95911 1.94298 2.88741 2.85072 2.94443 2.91071 2.85072 2.81045 2.91071 2.87306 2.08886 2.07195 2.02329 2.00673 2.15484 2.13763 2.08886 2.07195 2.81045 2.76701 2.87306 2.83199 2.76701 2.72069 2.83199 2.78785 2.22052 2.20302 2.15484 2.13763 2.28536 2.26757 2.22052 2.20302 2.67174 2.74093 2.72069 2.78785 2.62032 2.69143 2.67174 2.74093 2.34895 2.33087 2.28536 2.26757 2.41101 2.39262 2.34895 2.33087 2.56657 2.63951 2.62032 2.69143 2.51062 2.58532 2.56657 2.63951 2.47132 2.45259 2.41101 2.39262 2.52971 2.51062 2.47132 2.45259 3.93946 3.83034 4.11012 3.96385 4.07577 3.93946 4.219 4.11012 3.80368 3.76728 4.07577 3.93946 3.76728 3.74999 3.93946 3.83034 3.63964 3.46595 3.71935 3.69682 3.71935 3.69682 3.83034 3.96385 3.63964 3.71935 3.74999 3.83034 1.74122 1.75815 1.77241 1.78312 1.74122 1.71328 1.75815 1.74999 1.75815 1.74999 1.78312 1.78968 2.96622 2.89658 3.01818 2.92777 2.89658 2.8004 2.92777 2.85919 3.01818 2.92777 2.98331 2.85919 2.52971 2.57356 2.51062 2.58532 1.661 1.65331 1.65407 1.64658 1.67374 1.661 1.65203 1.65407 1.67374 1.67035 1.661 1.65331 61.1094 61.2729 60.4935 60.5733 60.9642 61.1094 60.408 60.4935 60.8365 60.9642 60.3178 60.408 60.7212 60.8365 60.2311 60.3178 58.0252 58.0711 57.2794 57.3277 57.9427 58.0252 57.1849 57.2794 58.7655 58.8353 57.9427 58.0252 58.8353 58.8802 58.0252 58.0711 59.6235 59.6833 58.8353 58.8802 59.5548 59.6235 58.7655 58.8353 60.2311 60.3178 59.5548 59.6235 60.3178 60.408 59.6235 59.6833 59.8174 59.8934 59.1053 59.1984 59.1053 59.1984 58.1956 58.3185 59.012 59.1053 58.0767 58.1956 59.7444 59.8174 59.012 59.1053 59.7507 59.7096 58.8202 58.7419 60.6936 60.7181 59.7507 59.7096 60.7181 60.7006 59.7096 59.6399 59.7096 59.6399 58.7419 58.6424 58.0767 58.1956 56.8815 57.0673 58.1956 58.3185 57.0673 57.2773 61.2729 61.4554 60.5733 60.6432 61.4554 61.6535 60.6432 60.6936 61.8494 61.9959 60.7181 60.7006 61.6535 61.8494 60.6936 60.7181 60.3065 60.368 59.8174 59.8934 60.2556 60.3065 59.7444 59.8174 58.8202 58.7419 57.8957 57.7697 58.7419 58.6424 57.7697 57.6203 60.4407 60.5235 59.9737 60.0576 60.368 60.4407 59.8934 59.9737 60.6171 60.7212 60.1445 60.2311 60.5235 60.6171 60.0576 60.1445 59.9737 60.0576 59.2939 59.3856 59.2939 59.3856 58.4475 58.565 59.1984 59.2939 58.3185 58.4475 59.8934 59.9737 59.1984 59.2939 57.825 57.9427 57.0403 57.1849 58.565 58.6762 57.6702 57.825 58.6762 58.7655 57.825 57.9427 60.0576 60.1445 59.3856 59.4755 60.1445 60.2311 59.4755 59.5548 59.4755 59.5548 58.6762 58.7655 59.3856 59.4755 58.565 58.6762 59.7635 59.7507 58.872 58.8202 59.752 59.7635 58.8981 58.872 60.5733 60.6432 59.752 59.7635 60.6432 60.6936 59.7635 59.7507 58.3185 58.4475 57.2773 57.4839 58.4475 58.565 57.4839 57.6702 58.9013 58.8981 58.0808 58.0529 58.0808 58.0529 57.3309 57.2872 58.0711 58.0808 57.3277 57.3309 58.8802 58.9013 58.0711 58.0808 58.8981 58.872 58.0529 57.9914 58.872 58.8202 57.9914 57.8957 59.6833 59.7237 58.8802 58.9013 60.408 60.4935 59.6833 59.7237 60.4935 60.5733 59.7237 59.752 59.7237 59.752 58.9013 58.8981 46.906 46.7154 48.587 48.5372 47.0828 46.906 48.6342 48.587 49.0674 49.0041 49.6728 49.6519 49.0041 48.9446 49.6519 49.6394 48.9446 48.8858 49.6394 49.6367 48.8858 48.8311 49.6367 49.647 47.2449 47.0828 48.6808 48.6342 47.3921 47.2449 48.7279 48.6808 48.0071 47.8927 49.0041 48.9446 48.1169 48.0071 49.0674 49.0041 48.6342 48.587 49.8786 49.9963 48.587 48.5372 49.9963 50.1314 47.7763 47.6564 48.8858 48.8311 47.8927 47.7763 48.9446 48.8858 48.7279 48.6808 49.7182 49.7859 48.6808 48.6342 49.7859 49.8786 48.5372 48.4835 50.1314 50.2657 48.4835 48.4194 50.2657 50.3673 46.5231 46.3434 48.4835 48.4194 46.7154 46.5231 48.5372 48.4835 49.1998 49.132 49.732 49.6999 49.132 49.0674 49.6999 49.6728 48.2238 48.1169 49.132 49.0674 48.327 48.2238 49.1998 49.132 48.8311 48.778 49.647 49.6731 48.778 48.7279 49.6731 49.7182 47.5281 47.3921 48.778 48.7279 47.6564 47.5281 48.8311 48.778 129.226 129.094 108.333 108.151 129.094 129.063 108.151 107.979 195.833 195.765 194.457 194.39 194.457 194.39 192.603 192.535 194.48 194.457 192.625 192.603 195.856 195.833 194.48 194.457 189.806 189.321 191.76 191.264 191.76 191.264 193.193 192.689 187.165 186.708 189.806 189.321 183.668 183.227 187.165 186.708 154.749 141.401 154.586 141.269 141.401 123.944 141.269 123.794 196.778 195.763 196.667 195.651 196.667 195.651 196.514 195.5 197.337 196.667 197.179 196.514 197.449 196.778 197.337 196.667 158.068 157.713 168.214 167.933 157.713 157.278 167.933 167.579 167.933 167.579 175.779 175.514 168.214 167.933 175.975 175.779 187.451 186.97 184.09 183.685 189.975 189.463 187.451 186.97 192.452 192.376 194.403 194.33 194.403 194.33 195.833 195.763 194.431 194.403 195.858 195.833 192.486 192.452 194.431 194.403 186.937 186.83 182.716 182.544 186.83 186.667 182.544 182.307 182.544 182.307 176.97 176.663 182.716 182.544 177.212 176.97 193.671 193.204 192.295 191.828 192.295 191.828 190.441 189.975 192.716 192.295 190.863 190.441 194.092 193.671 192.716 192.295 187.543 187.165 190.211 189.806 187.867 187.543 190.574 190.211 184.259 183.99 187.867 187.543 183.99 183.668 187.543 187.165 197.513 197.49 196.845 196.822 197.49 197.422 196.822 196.755 196.822 196.755 195.833 195.765 196.845 196.822 195.856 195.833 197.513 197.901 197.49 197.879 197.901 198.035 197.879 198.012 197.879 198.012 197.811 197.944 197.49 197.879 197.422 197.811 191.828 191.317 189.975 189.463 193.204 192.692 191.828 191.317 194.193 193.681 193.204 192.692 194.861 194.349 194.193 193.681 190.109 190.007 186.83 186.667 190.165 190.109 186.937 186.83 192.625 192.603 190.165 190.109 192.603 192.535 190.109 190.007 192.195 191.76 193.648 193.193 192.585 192.195 194.058 193.648 190.574 190.211 192.585 192.195 190.211 189.806 192.195 191.76 196.87 195.858 196.846 195.833 196.846 195.833 196.778 195.763 197.517 196.846 197.449 196.778 197.54 196.87 197.517 196.846 198.035 197.918 198.012 197.895 197.918 197.54 197.895 197.517 197.895 197.517 197.828 197.449 198.012 197.895 197.944 197.828 196.125 196.514 195.749 196.138 196.457 196.845 196.125 196.514 196.845 196.979 196.514 196.647 196.514 196.647 196.138 196.271 195.083 194.058 194.672 193.648 194.672 193.648 194.211 193.193 195.354 194.672 194.888 194.211 195.776 195.083 195.354 194.672 192.247 192.083 194.213 194.055 194.213 194.055 195.651 195.5 194.33 194.213 195.763 195.651 192.376 192.247 194.33 194.213 195.25 195.383 194.738 194.871 194.861 195.25 194.349 194.738 194.888 194.211 194.376 193.703 194.211 193.193 193.703 192.689 195.749 195.327 195.081 194.66 195.327 194.861 194.66 194.193 194.66 194.193 193.671 193.204 195.081 194.66 194.092 193.671 190.441 189.975 187.833 187.451 187.833 187.451 184.376 184.09 188.17 187.833 184.512 184.376 190.863 190.441 188.17 187.833 196.138 196.271 195.716 195.849 195.716 195.849 195.25 195.383 195.327 195.716 194.861 195.25 195.749 196.138 195.327 195.716 197.309 197.152 196.642 196.484 196.642 196.484 195.652 195.494 196.755 196.642 195.765 195.652 197.422 197.309 196.755 196.642 196.152 195.445 195.776 195.083 196.483 195.762 196.152 195.445 195.762 194.694 195.445 194.394 195.445 194.394 195.083 194.058 195.383 195.266 194.871 194.754 195.266 194.888 194.754 194.376 197.715 197.337 197.557 197.179 197.832 197.715 197.674 197.557 197.944 197.828 197.832 197.715 197.828 197.449 197.715 197.337 197.698 197.832 197.54 197.674 197.309 197.698 197.152 197.54 197.422 197.811 197.309 197.698 197.811 197.944 197.698 197.832 195.849 195.733 195.383 195.266 196.271 196.154 195.849 195.733 196.154 195.776 195.733 195.354 195.733 195.354 195.266 194.888 196.862 196.483 196.531 196.152 196.531 196.152 196.154 195.776 196.647 196.531 196.271 196.154 196.979 196.862 196.647 196.531 195.457 195.081 194.468 194.092 195.788 195.457 194.798 194.468 196.457 196.125 195.788 195.457 196.125 195.749 195.457 195.081 196.484 196.281 195.494 195.292 197.152 196.948 196.484 196.281 196.948 196.7 196.281 196.033 196.281 196.033 195.292 195.044 197.152 197.54 196.948 197.337 197.54 197.674 197.337 197.471 197.337 197.471 197.089 197.223 196.948 197.337 196.7 197.089 193.092 192.716 191.239 190.863 193.423 193.092 191.57 191.239 194.798 194.468 193.423 193.092 194.468 194.092 193.092 192.716 197.354 196.975 197.106 196.727 197.471 197.354 197.223 197.106 197.674 197.557 197.471 197.354 197.557 197.179 197.354 196.975 196.582 196.457 195.914 195.788 195.914 195.788 194.925 194.798 196.033 195.914 195.044 194.925 196.7 196.582 196.033 195.914 195.652 195.494 194.276 194.118 194.276 194.118 192.419 192.258 194.39 194.276 192.535 192.419 195.765 195.652 194.39 194.276 197.089 197.223 196.971 197.105 196.971 197.105 196.845 196.979 196.582 196.971 196.457 196.845 196.7 197.089 196.582 196.971 197.223 197.106 197.105 196.988 197.106 196.727 196.988 196.608 196.988 196.608 196.862 196.483 197.105 196.988 196.979 196.862 193.868 193.646 195.32 195.104 194.055 193.868 195.5 195.32 192.083 191.883 194.055 193.868 191.883 191.648 193.868 193.646 196.514 195.5 196.321 195.32 196.321 195.32 196.089 195.104 196.975 196.321 196.727 196.089 197.179 196.514 196.975 196.321 192.419 192.258 189.831 189.605 189.831 189.605 186.409 186.029 190.007 189.831 186.667 186.409 192.535 192.419 190.007 189.831 191.166 190.884 193.206 192.913 190.884 190.574 192.913 192.585 192.913 192.585 194.394 194.058 193.206 192.913 194.694 194.394 194.925 194.798 193.552 193.423 193.552 193.423 191.701 191.57 193.672 193.552 191.824 191.701 195.044 194.925 193.672 193.552 193.917 193.672 192.063 191.824 194.118 193.917 192.258 192.063 195.494 195.292 194.118 193.917 195.292 195.044 193.917 193.672 186.439 186.368 189.883 189.838 186.368 186.258 189.838 189.747 189.838 189.747 192.452 192.376 189.883 189.838 192.486 192.452 183.668 179.008 183.227 178.655 179.008 172.927 178.655 172.633 196.727 196.089 196.608 195.932 196.089 195.104 195.932 194.903 195.932 194.903 195.762 194.694 196.608 195.932 196.483 195.762 191.411 191.166 193.436 193.206 193.436 193.206 194.903 194.694 193.646 193.436 195.104 194.903 191.648 191.411 193.646 193.436 179.702 179.386 174.022 173.796 184.09 183.685 179.702 179.386 189.406 189.172 192.083 191.883 185.844 185.549 189.406 189.172 185.549 185.254 189.172 188.899 189.172 188.899 191.883 191.648 181.91 175.975 181.788 175.779 181.788 175.779 181.615 175.514 186.368 181.788 186.258 181.615 186.439 181.91 186.368 181.788 165.018 164.796 172.927 172.633 154.749 154.586 165.018 164.796 129.907 129.499 108.943 108.627 129.499 129.226 108.627 108.333 166.685 166.537 157.215 157.117 174.022 173.796 166.685 166.537 189.747 189.602 192.376 192.247 186.258 186.086 189.747 189.602 186.086 185.844 189.602 189.406 189.602 189.406 192.247 192.083 176.97 176.663 169.729 169.361 169.729 169.361 160.327 159.924 170.04 169.729 160.69 160.327 177.212 176.97 170.04 169.729 179.485 173.282 179.289 173.114 179.289 173.114 179.008 172.927 183.99 179.289 183.668 179.008 184.259 179.485 183.99 179.289 130.819 130.344 109.672 109.323 130.344 129.907 109.323 108.943 129.063 128.997 107.979 107.815 128.997 128.952 107.815 107.637 160.327 159.924 148.094 147.665 148.094 147.665 132.069 131.687 148.478 148.094 132.425 132.069 160.69 160.327 148.478 148.094 144.786 127.303 144.385 126.916 144.385 126.916 143.915 126.485 157.713 144.385 157.278 143.915 158.068 144.786 157.713 144.385 128.952 128.845 107.637 107.434 144.933 144.873 128.952 128.845 157.215 157.117 144.933 144.873 174.041 174.148 166.621 166.724 166.621 166.724 157.047 157.201 166.455 166.621 156.817 157.047 173.931 174.041 166.455 166.621 167.317 166.88 157.772 157.311 174.686 174.236 167.317 166.88 174.236 173.931 166.88 166.455 166.88 166.455 157.311 156.817 167.886 167.317 158.402 157.772 168.434 167.886 158.963 158.402 175.799 175.24 168.434 167.886 175.24 174.686 167.886 167.317 123.944 100.651 123.794 100.412 141.371 124.027 141.393 123.95 141.393 123.95 141.402 124.036 154.807 141.393 154.781 141.402 154.841 141.371 154.807 141.393 131.687 131.255 110.345 110.029 131.255 130.819 110.029 109.672 141.445 124.015 141.401 123.944 154.81 141.445 154.749 141.401 154.781 141.402 154.81 141.445 141.402 124.036 141.445 124.015 155.617 155.188 166.165 165.86 166.165 165.86 174.244 173.99 166.555 166.165 174.621 174.244 156.01 155.617 166.555 166.165 165.201 165.146 173.282 173.114 154.781 154.81 165.201 165.146 154.81 154.749 165.146 165.018 165.146 165.018 173.114 172.927 157.201 157.231 144.932 144.964 157.231 157.215 144.964 144.933 144.964 144.933 128.997 128.952 144.932 144.964 129.063 128.997 191.701 191.57 188.579 188.375 188.579 188.375 184.218 183.9 188.772 188.579 184.519 184.218 191.824 191.701 188.772 188.579 180.22 179.865 174.686 174.236 184.519 184.218 180.22 179.865 184.218 183.9 179.865 179.517 179.865 179.517 174.236 173.931 156.713 143.371 156.01 142.784 157.278 143.915 156.713 143.371 143.915 126.485 143.371 125.983 143.371 125.983 142.784 125.35 147.665 147.214 131.687 131.255 159.924 159.454 147.665 147.214 159.454 158.963 147.214 146.71 147.214 146.71 131.255 130.819 142.239 124.71 141.747 124.371 155.617 142.239 155.188 141.747 156.01 142.784 155.617 142.239 142.784 125.35 142.239 124.71 144.757 144.869 129.226 129.094 156.817 157.047 144.757 144.869 157.047 157.201 144.869 144.932 144.869 144.932 129.094 129.063 165.564 165.405 173.745 173.548 165.86 165.564 173.99 173.745 155.188 154.964 165.86 165.564 154.964 154.841 165.564 165.405 158.963 158.402 146.71 146.191 158.402 157.772 146.191 145.669 146.191 145.669 130.344 129.907 146.71 146.191 130.819 130.344 157.311 156.817 145.206 144.757 145.206 144.757 129.499 129.226 145.669 145.206 129.907 129.499 157.772 157.311 145.669 145.206 154.964 141.448 154.841 141.371 155.188 141.747 154.964 141.448 141.747 124.371 141.448 124.051 141.448 124.051 141.371 124.027 185.844 181.017 185.549 180.708 181.017 174.621 180.708 174.244 180.708 174.244 180.405 173.99 185.549 180.708 185.254 180.405 180.917 180.22 175.24 174.686 181.521 180.917 175.799 175.24 186.029 185.317 181.521 180.917 185.317 184.519 180.917 180.22 183.9 184.269 179.517 179.788 184.269 184.512 179.788 179.936 179.788 179.936 174.041 174.148 179.517 179.788 173.931 174.041 192.063 191.824 189.212 188.772 189.212 188.772 185.317 184.519 189.605 189.212 186.029 185.317 192.258 192.063 189.605 189.212 154.807 154.781 165.308 165.201 165.308 165.201 173.398 173.282 165.405 165.308 173.548 173.398 154.841 154.807 165.405 165.308 179.671 173.398 179.485 173.282 184.5 179.671 184.259 179.485 184.729 179.863 184.5 179.671 179.863 173.548 179.671 173.398 179.899 179.702 174.144 174.022 179.936 179.899 174.148 174.144 184.512 184.376 179.936 179.899 184.376 184.09 179.899 179.702 188.409 188.149 191.166 190.884 184.729 184.5 188.409 188.149 184.5 184.259 188.149 187.867 188.149 187.867 190.884 190.574 186.409 186.029 181.977 181.521 181.977 181.521 176.273 175.799 182.307 181.977 176.663 176.273 186.667 186.409 182.307 181.977 188.295 188.17 184.269 184.512 188.375 188.295 183.9 184.269 191.57 191.239 188.375 188.295 191.239 190.863 188.295 188.17 181.615 175.514 181.35 175.142 181.35 175.142 181.017 174.621 186.086 181.35 185.844 181.017 186.258 181.615 186.086 181.35 167.117 166.555 175.142 174.621 167.579 167.117 175.514 175.142 157.278 156.713 167.579 167.117 156.713 156.01 167.117 166.555 169.361 168.932 159.924 159.454 176.663 176.273 169.361 168.932 176.273 175.799 168.932 168.434 168.932 168.434 159.454 158.963 174.148 174.144 166.724 166.751 174.144 174.022 166.751 166.685 166.751 166.685 157.231 157.215 166.724 166.751 157.201 157.231 185.254 185.004 188.899 188.668 185.004 184.729 188.668 188.409 188.668 188.409 191.411 191.166 188.899 188.668 191.648 191.411 185.004 180.141 184.729 179.863 185.254 180.405 185.004 180.141 180.405 173.99 180.141 173.745 180.141 173.745 179.863 173.548 47.6702 47.0426 52.0761 53.1124 52.0761 53.1124 68.1483 71.3864 48.4194 47.6702 50.3673 52.0761 20.6674 4.219 21.573 4.11012 21.573 4.11012 22.2581 3.96385 37.8253 21.573 36.9523 22.2581 46.3434 44.4581 48.4194 47.6702 44.4581 43.3025 47.6702 47.0426 58.6424 56.9783 57.6203 55.2624 60.7006 60.8518 59.6399 58.5283 60.8518 61.9119 58.5283 57.6043 59.6399 58.5283 58.6424 56.9783 62.669 66.1638 60.8518 61.9119 61.9959 62.669 60.7006 60.8518 47.2929 38.6614 47.0737 30.0468 62.1802 116.952 60.6192 114.05 60.6192 114.05 58.5554 110.231 63.3515 64.2205 119.139 120.765 62.1802 63.3515 116.952 119.139 51.6452 84.1293 45.0227 70.6599 45.0227 70.6599 37.5028 55.5893 63.7767 62.8504 120.429 118.766 64.4776 63.7767 121.671 120.429 64.9995 64.4776 122.582 121.671 65.3758 64.9995 123.221 122.582 47.6484 40.7347 73.2628 59.6659 40.7347 34.8733 59.6659 49.934 59.6659 49.934 75.7529 61.9119 58.4058 53.8316 95.5185 85.9674 53.8316 47.6484 85.9674 73.2628 59.9611 57.9471 113.668 109.935 57.9471 55.3206 109.935 105.056 53.1521 93.0035 51.6452 84.1293 52.2379 99.6131 53.1521 93.0035 65.5457 123.387 65.2044 122.783 65.7616 123.761 65.5457 123.387 65.7717 123.886 65.7616 123.761 65.6796 123.825 65.7717 123.886 62.8504 61.59 118.766 116.562 61.59 59.9611 116.562 113.668 55.3206 57.843 105.056 101.652 57.843 58.4058 101.652 95.5185 65.5819 123.624 65.6796 123.825 65.3758 123.221 65.5819 123.624 49.934 45.0172 61.9119 57.6043 34.8733 31.1652 49.934 45.0172 31.1652 29.0497 45.0172 42.3302 52.2379 55.8027 99.6131 105.339 55.8027 58.5554 105.339 110.231 64.2205 64.8064 120.765 121.948 64.8064 65.2044 121.948 122.783 1.72351 4.80712 1.67035 1.64748 1.77241 7.69762 1.72351 4.80712