# vtk DataFile Version 3.0
#This file was generated by the deal.II library on 2020/5/26 at 18:52:20
ASCII
DATASET UNSTRUCTURED_GRID

POINTS 11628 double
0 0 0
0.466667 0 0
0 0.4 0
0.45119 0.4 0
0.466667 0 0
0.933333 0 0
0.45119 0.4 0
0.902381 0.4 0
0.483333 23.6 0
0.966667 23.6 0
0.466667 24 0
0.933333 24 0
0 23.6 0
0.483333 23.6 0
0 24 0
0.466667 24 0
0 23.2 0
0.5 23.2 0
0 23.6 0
0.483333 23.6 0
0.5 23.2 0
1 23.2 0
0.483333 23.6 0
0.966667 23.6 0
0.933333 0 0
1.4 0 0
0.902381 0.4 0
1.35357 0.4 0
1.4 0 0
1.86667 0 0
1.35357 0.4 0
1.80476 0.4 0
1.45 23.6 0
1.93333 23.6 0
1.4 24 0
1.86667 24 0
0.966667 23.6 0
1.45 23.6 0
0.933333 24 0
1.4 24 0
1 23.2 0
1.5 23.2 0
0.966667 23.6 0
1.45 23.6 0
1.5 23.2 0
2 23.2 0
1.45 23.6 0
1.93333 23.6 0
1.86667 0 0
2.33333 0 0
1.80476 0.4 0
2.25595 0.4 0
2.33333 0 0
2.8 0 0
2.25595 0.4 0
2.70714 0.4 0
2.41667 23.6 0
2.9 23.6 0
2.33333 24 0
2.8 24 0
1.93333 23.6 0
2.41667 23.6 0
1.86667 24 0
2.33333 24 0
2 23.2 0
2.5 23.2 0
1.93333 23.6 0
2.41667 23.6 0
2.5 23.2 0
3 23.2 0
2.41667 23.6 0
2.9 23.6 0
2.8 0 0
3.26667 0 0
2.70714 0.4 0
3.15833 0.4 0
3.26667 0 0
3.73333 0 0
3.15833 0.4 0
3.60952 0.4 0
3.38333 23.6 0
3.86667 23.6 0
3.26667 24 0
3.73333 24 0
2.9 23.6 0
3.38333 23.6 0
2.8 24 0
3.26667 24 0
3 23.2 0
3.5 23.2 0
2.9 23.6 0
3.38333 23.6 0
3.5 23.2 0
4 23.2 0
3.38333 23.6 0
3.86667 23.6 0
3.73333 0 0
4.2 0 0
3.60952 0.4 0
4.06071 0.400002 0
4.2 0 0
4.66667 0 0
4.06071 0.400002 0
4.51187 0.400017 0
4.35 23.6 0
4.83333 23.6 0
4.2 24 0
4.66667 24 0
3.86667 23.6 0
4.35 23.6 0
3.73333 24 0
4.2 24 0
4 23.2 0
4.5 23.2 0
3.86667 23.6 0
4.35 23.6 0
4.5 23.2 0
5 23.2 0
4.35 23.6 0
4.83333 23.6 0
4.66667 0 0
5.13333 0 0
4.51187 0.400017 0
4.96274 0.40018 0
5.13333 0 0
5.6 0 0
4.96274 0.40018 0
5.412 0.401188 0
5.31667 23.6 0
5.8 23.6 0
5.13333 24 0
5.6 24 0
4.83333 23.6 0
5.31667 23.6 0
4.66667 24 0
5.13333 24 0
5 23.2 0
5.5 23.2 0
4.83333 23.6 0
5.31667 23.6 0
5.5 23.2 0
6 23.2 0
5.31667 23.6 0
5.8 23.6 0
7.7656 0.408656 0
8.08564 0.489853 0
7.625 0.8 0
8 0.8 0
7.37297 0.372717 0
7.7656 0.408656 0
7.25 0.8 0
7.625 0.8 0
7.46667 0 0
7.93333 0 0
7.37297 0.372717 0
7.7656 0.408656 0
7.93333 0 0
8.4 0 0
7.7656 0.408656 0
8.08564 0.489853 0
5.6 0 0
6.06667 0 0
5.412 0.401188 0
5.851 0.407784 0
6.06667 0 0
6.53333 0 0
5.851 0.407784 0
6.22598 0.450874 0
8.4 1.5 0
8.20238 1.40048 0
8.4 1 0
8.21539 0.946782 0
8.4 2 0
8.20022 1.8875 0
8.4 1.5 0
8.20238 1.40048 0
8 1.77391 0
8 1.28696 0
8.20022 1.8875 0
8.20238 1.40048 0
8 1.28696 0
8 0.8 0
8.20238 1.40048 0
8.21539 0.946782 0
8.21496 23.0543 0
8.2025 22.599 0
8.4 23 0
8.4 22.5 0
8 23.2 0
8 22.713 0
8.21496 23.0543 0
8.2025 22.599 0
8 22.2261 0
8.20035 22.1121 0
8 22.713 0
8.2025 22.599 0
8.20035 22.1121 0
8.4 22 0
8.2025 22.599 0
8.4 22.5 0
6.28333 23.6 0
6.76667 23.6 0
6.06667 24 0
6.53333 24 0
5.8 23.6 0
6.28333 23.6 0
5.6 24 0
6.06667 24 0
6 23.2 0
6.5 23.2 0
5.8 23.6 0
6.28333 23.6 0
6.5 23.2 0
7 23.2 0
6.28333 23.6 0
6.76667 23.6 0
7.69489 23.5856 0
7.5 23.2 0
8.06391 23.5091 0
8 23.2 0
7.69489 23.5856 0
8.06391 23.5091 0
7.93333 24 0
8.4 24 0
7.23333 23.6 0
7.69489 23.5856 0
7.46667 24 0
7.93333 24 0
7.23333 23.6 0
7 23.2 0
7.69489 23.5856 0
7.5 23.2 0
8 2.26087 0
8.20003 2.3805 0
8 2.74783 0
8.2 2.87391 0
8 1.77391 0
8.20022 1.8875 0
8 2.26087 0
8.20003 2.3805 0
8.4 2 0
8.4 2.5 0
8.20022 1.8875 0
8.20003 2.3805 0
8.4 2.5 0
8.4 3 0
8.20003 2.3805 0
8.2 2.87391 0
8.20005 21.6194 0
8.4 21.5 0
8.20035 22.1121 0
8.4 22 0
8 21.7391 0
8.20005 21.6194 0
8 22.2261 0
8.20035 22.1121 0
8 21.2522 0
8.2 21.1261 0
8 21.7391 0
8.20005 21.6194 0
8.2 21.1261 0
8.4 21 0
8.20005 21.6194 0
8.4 21.5 0
8 2.74783 0
8.2 2.87391 0
8 3.23478 0
8.2 3.36739 0
8.4 3 0
8.4 3.5 0
8.2 2.87391 0
8.2 3.36739 0
8.4 3.5 0
8.4 4 0
8.2 3.36739 0
8.2 3.86087 0
8.2 20.6326 0
8.4 20.5 0
8.2 21.1261 0
8.4 21 0
8 20.7652 0
8.2 20.6326 0
8 21.2522 0
8.2 21.1261 0
8 20.2783 0
8.2 20.1391 0
8 20.7652 0
8.2 20.6326 0
8.2 20.1391 0
8.4 20 0
8.2 20.6326 0
8.4 20.5 0
7 0 0
7.46667 0 0
7.00198 0.331094 0
7.37297 0.372717 0
7.00198 0.331094 0
7.37297 0.372717 0
6.94022 0.576588 0
7.25 0.8 0
7.00198 0.331094 0
6.94022 0.576588 0
6.69426 0.367442 0
6.75692 0.535711 0
7 0 0
7.00198 0.331094 0
6.53333 0 0
6.69426 0.367442 0
8.4 4.5 0
8.2 4.35435 0
8.4 4 0
8.2 3.86087 0
8.4 5 0
8.2 4.84783 0
8.4 4.5 0
8.2 4.35435 0
8.2 19.6457 0
8.4 19.5 0
8.2 20.1391 0
8.4 20 0
8.2 19.1522 0
8.4 19 0
8.2 19.6457 0
8.4 19.5 0
8.4 5.5 0
8.2 5.3413 0
8.4 5 0
8.2 4.84783 0
8.4 6 0
8.2 5.83478 0
8.4 5.5 0
8.2 5.3413 0
8.2 18.6587 0
8.4 18.5 0
8.2 19.1522 0
8.4 19 0
8.2 18.1652 0
8.4 18 0
8.2 18.6587 0
8.4 18.5 0
8.4 6 0
8.4 6.5 0
8.2 5.83478 0
8.2 6.32826 0
8.4 6.5 0
8.4 7 0
8.2 6.32826 0
8.2 6.82174 0
8.2 17.6717 0
8.4 17.5 0
8.2 18.1652 0
8.4 18 0
8.2 17.1783 0
8.4 17 0
8.2 17.6717 0
8.4 17.5 0
8.4 7.5 0
8.2 7.31522 0
8.4 7 0
8.2 6.82174 0
8.4 8 0
8.2 7.8087 0
8.4 7.5 0
8.2 7.31522 0
8.2 16.6848 0
8.4 16.5 0
8.2 17.1783 0
8.4 17 0
8.2 16.1913 0
8.4 16 0
8.2 16.6848 0
8.4 16.5 0
8.4 8 0
8.4 8.5 0
8.2 7.8087 0
8.2 8.30217 0
8.4 8.5 0
8.4 9 0
8.2 8.30217 0
8.2 8.79565 0
8.2 15.6978 0
8.4 15.5 0
8.2 16.1913 0
8.4 16 0
8.2 15.2043 0
8.4 15 0
8.2 15.6978 0
8.4 15.5 0
8.4 9 0
8.4 9.5 0
8.2 8.79565 0
8.2 9.28913 0
8.4 9.5 0
8.4 10 0
8.2 9.28913 0
8.2 9.78261 0
8.2 14.7109 0
8.4 14.5 0
8.2 15.2043 0
8.4 15 0
8.2 14.2174 0
8.4 14 0
8.2 14.7109 0
8.4 14.5 0
8.4 10.5 0
8.2 10.2761 0
8.4 10 0
8.2 9.78261 0
8.4 11 0
8.2 10.7696 0
8.4 10.5 0
8.2 10.2761 0
8.2 13.7239 0
8.4 13.5 0
8.2 14.2174 0
8.4 14 0
8.2 13.2304 0
8.4 13 0
8.2 13.7239 0
8.4 13.5 0
8.4 11.5 0
8.2 11.263 0
8.4 11 0
8.2 10.7696 0
8.4 12 0
8.2 11.7565 0
8.4 11.5 0
8.2 11.263 0
8.2 12.737 0
8.4 12.5 0
8.2 13.2304 0
8.4 13 0
8.2 12.2435 0
8.4 12 0
8.2 12.737 0
8.4 12.5 0
6.47056 0.554541 0
6.65423 0.648139 0
6.3 0.8 0
6.5 0.8 0
6.22598 0.450874 0
6.47056 0.554541 0
6.1 0.8 0
6.3 0.8 0
6.53333 0 0
6.69426 0.367442 0
6.22598 0.450874 0
6.47056 0.554541 0
6.69426 0.367442 0
6.75692 0.535711 0
6.47056 0.554541 0
6.65423 0.648139 0
6.94022 0.576588 0
7.25 0.8 0
6.82768 0.687981 0
6.875 0.8 0
6.82768 0.687981 0
6.875 0.8 0
6.65423 0.648139 0
6.5 0.8 0
6.94022 0.576588 0
6.82768 0.687981 0
6.75692 0.535711 0
6.65423 0.648139 0
7.23333 23.6 0
7 23.7333 0
7 23.2 0
6.76667 23.6 0
7.23333 23.6 0
7.46667 24 0
7 23.7333 0
7 24 0
7 23.7333 0
7 24 0
6.76667 23.6 0
6.53333 24 0
8.4 0 0
8.4 0.5 0
8.08564 0.489853 0
8.24539 0.628305 0
8.4 0.5 0
8.4 1 0
8.24539 0.628305 0
8.21539 0.946782 0
8.08564 0.489853 0
8.24539 0.628305 0
8 0.8 0
8.21539 0.946782 0
8.2 12.2435 0
8.13333 12 0
8.4 12 0
8.2 11.7565 0
8.2409 23.3709 0
8.21496 23.0543 0
8.4 23.5 0
8.4 23 0
8.06391 23.5091 0
8.2409 23.3709 0
8.4 24 0
8.4 23.5 0
8.06391 23.5091 0
8 23.2 0
8.2409 23.3709 0
8.21496 23.0543 0
3.92285 19.2089 0
4.35873 19.2071 0
3.92402 19.6155 0
4.36024 19.6131 0
3.48654 19.2104 0
3.92285 19.2089 0
3.48709 19.6173 0
3.92402 19.6155 0
3.04979 19.2095 0
3.48654 19.2104 0
3.04963 19.6194 0
3.48709 19.6173 0
2.61306 19.209 0
3.04979 19.2095 0
2.61199 19.618 0
3.04963 19.6194 0
3.04985 20.8074 0
3.4864 20.8076 0
3.05 21.2 0
3.48571 21.2 0
2.6132 20.8075 0
3.04985 20.8074 0
2.61429 21.2 0
3.05 21.2 0
2.61227 20.4138 0
3.04975 20.4138 0
2.6132 20.8075 0
3.04985 20.8074 0
3.04975 20.4138 0
3.48707 20.4145 0
3.04985 20.8074 0
3.4864 20.8076 0
3.04974 20.0186 0
3.48724 20.0176 0
3.04975 20.4138 0
3.48707 20.4145 0
2.61181 20.0173 0
3.04974 20.0186 0
2.61227 20.4138 0
3.04975 20.4138 0
2.61199 19.618 0
3.04963 19.6194 0
2.61181 20.0173 0
3.04974 20.0186 0
3.04963 19.6194 0
3.48709 19.6173 0
3.04974 20.0186 0
3.48724 20.0176 0
0.432966 19.604 0
0.866169 19.6083 0
0.432331 20.0047 0
0.865158 20.0094 0
0.432331 20.0047 0
0.865158 20.0094 0
0.431771 20.4049 0
0.864168 20.4095 0
0 20 0
0.432331 20.0047 0
0 20.4 0
0.431771 20.4049 0
0 19.6 0
0.432966 19.604 0
0 20 0
0.432331 20.0047 0
5.23131 20.0079 0
5.66598 20.0043 0
5.23131 20.4073 0
5.66612 20.4043 0
5.23107 19.6073 0
5.66553 19.6034 0
5.23131 20.0079 0
5.66598 20.0043 0
5.66553 19.6034 0
6.1 19.6 0
5.66598 20.0043 0
6.1 20 0
5.66598 20.0043 0
6.1 20 0
5.66612 20.4043 0
6.1 20.4 0
0 20.4 0
0.431771 20.4049 0
0 20.8 0
0.433758 20.8025 0
0.431771 20.4049 0
0.864168 20.4095 0
0.433758 20.8025 0
0.867586 20.8051 0
0.433758 20.8025 0
0.867586 20.8051 0
0.435714 21.2 0
0.871429 21.2 0
4.35873 19.2071 0
4.79445 19.2057 0
4.36024 19.6131 0
4.79575 19.61 0
4.79445 19.2057 0
5.22993 19.2041 0
4.79575 19.61 0
5.23107 19.6073 0
5.66501 19.202 0
6.1 19.2 0
5.66553 19.6034 0
6.1 19.6 0
5.22993 19.2041 0
5.66501 19.202 0
5.23107 19.6073 0
5.66553 19.6034 0
0.434142 19.2024 0
0.868611 19.2046 0
0.432966 19.604 0
0.866169 19.6083 0
0 19.2 0
0.434142 19.2024 0
0 19.6 0
0.432966 19.604 0
5.23131 20.4073 0
5.66612 20.4043 0
5.23046 20.8047 0
5.66527 20.8023 0
5.66612 20.4043 0
6.1 20.4 0
5.66527 20.8023 0
6.1 20.8 0
5.66527 20.8023 0
6.1 20.8 0
5.66429 21.2 0
6.1 21.2 0
5.23046 20.8047 0
5.66527 20.8023 0
5.22857 21.2 0
5.66429 21.2 0
1.30395 19.2062 0
1.73965 19.2079 0
1.30084 19.6116 0
1.73679 19.6143 0
0.868611 19.2046 0
1.30395 19.2062 0
0.866169 19.6083 0
1.30084 19.6116 0
2.17624 19.2085 0
2.61306 19.209 0
2.17407 19.6159 0
2.61199 19.618 0
1.73965 19.2079 0
2.17624 19.2085 0
1.73679 19.6143 0
2.17407 19.6159 0
1.30084 19.6116 0
1.73679 19.6143 0
1.30041 20.0122 0
1.73639 20.0151 0
1.30041 20.0122 0
1.73639 20.0151 0
1.30061 20.4111 0
1.73674 20.4137 0
0.865158 20.0094 0
1.30041 20.0122 0
0.864168 20.4095 0
1.30061 20.4111 0
0.866169 19.6083 0
1.30084 19.6116 0
0.865158 20.0094 0
1.30041 20.0122 0
2.17646 20.8072 0
2.6132 20.8075 0
2.17857 21.2 0
2.61429 21.2 0
1.73953 20.8074 0
2.17646 20.8072 0
1.74286 21.2 0
2.17857 21.2 0
1.73674 20.4137 0
2.1748 20.413 0
1.73953 20.8074 0
2.17646 20.8072 0
2.1748 20.413 0
2.61227 20.4138 0
2.17646 20.8072 0
2.6132 20.8075 0
1.73679 19.6143 0
2.17407 19.6159 0
1.73639 20.0151 0
2.17416 20.0157 0
2.17407 19.6159 0
2.61199 19.618 0
2.17416 20.0157 0
2.61181 20.0173 0
2.17416 20.0157 0
2.61181 20.0173 0
2.1748 20.413 0
2.61227 20.4138 0
[...]
POINT_DATA 11628
SCALARS solution double 1
LOOKUP_TABLE default
8.83702 8.63628 8.79095 8.59395 8.63628 8.26991 8.59395 8.2785 2.26451 2.25122 2.2617 2.24401 2.26903 2.26451 2.27219 2.2617 2.27115 2.2739 2.26903 2.26451 2.2739 2.26451 2.26451 2.25122 8.26991 7.85411 8.2785 7.90714 7.85411 7.42268 7.90714 7.5102 2.22993 2.20216 2.22003 2.19097 2.25122 2.22993 2.24401 2.22003 2.26451 2.24479 2.25122 2.22993 2.24479 2.21713 2.22993 2.20216 7.42268 6.99145 7.5102 7.10525 6.99145 6.56938 7.10525 6.70313 2.16942 2.13298 2.158 2.12207 2.20216 2.16942 2.19097 2.158 2.21713 2.18364 2.20216 2.16942 2.18364 2.14595 2.16942 2.13298 6.56938 6.16165 6.70313 6.31056 6.16165 5.77118 6.31056 5.93156 2.09376 2.05245 2.08388 2.04395 2.13298 2.09376 2.12207 2.08388 2.14595 2.10515 2.13298 2.09376 2.10515 2.06201 2.09376 2.05245 5.77118 5.39942 5.93156 5.56843 5.39942 5.04686 5.56843 5.22237 2.0095 1.96526 2.0027 1.96044 2.05245 2.0095 2.04395 2.0027 2.06201 2.01697 2.05245 2.0095 2.01697 1.97029 2.0095 1.96526 5.04686 4.71324 5.22237 4.89406 4.71324 4.39719 4.89406 4.5848 1.92006 1.87427 1.91753 1.8744 1.96526 1.92006 1.96044 1.91753 1.97029 1.92213 1.96526 1.92006 1.92213 1.87271 1.92006 1.87427 3.17528 3.01806 3.24733 2.98317 3.37641 3.17528 3.46614 3.24733 3.29863 3.10544 3.37641 3.17528 3.10544 2.96608 3.17528 3.01806 4.39719 4.09486 4.5848 4.30128 4.09486 3.80397 4.30128 4.07636 2.77697 2.8 2.80016 2.85898 2.80118 2.8078 2.77697 2.8 2.81288 2.82215 2.8078 2.8 2.82215 2.98317 2.8 2.85898 1.65338 1.64136 1.64664 1.63411 1.67043 1.64761 1.65338 1.64136 1.64217 1.63557 1.64761 1.64136 1.63557 1.62712 1.64136 1.63411 1.82845 1.78337 1.83162 1.78991 1.87427 1.82845 1.8744 1.83162 1.87271 1.82258 1.87427 1.82845 1.82258 1.77267 1.82845 1.78337 1.70229 1.72367 1.67379 1.67043 1.70229 1.67379 1.68078 1.65201 1.74139 1.70229 1.71336 1.68078 1.74139 1.77267 1.70229 1.72367 2.84411 2.84268 2.8868 2.88486 2.81288 2.8078 2.84411 2.84268 2.80118 2.84028 2.8078 2.84268 2.84028 2.88189 2.84268 2.88486 1.63597 1.62643 1.63557 1.62712 1.64374 1.63597 1.64217 1.63557 1.65067 1.64174 1.64374 1.63597 1.64174 1.63129 1.63597 1.62643 2.8868 2.88486 2.93142 2.9267 2.88189 2.92062 2.88486 2.9267 2.92062 2.95296 2.9267 2.96423 1.65193 1.6408 1.64174 1.63129 1.66172 1.65193 1.65067 1.64174 1.67645 1.6663 1.66172 1.65193 1.6663 1.65466 1.65193 1.6408 3.53465 3.29863 3.57867 3.37641 3.57867 3.37641 3.63996 3.46614 3.57867 3.63996 3.76765 3.75039 3.53465 3.57867 3.80397 3.76765 2.97629 2.99433 2.95296 2.96423 2.98925 3.0147 2.97629 2.99433 1.68573 1.67364 1.6663 1.65466 1.71193 1.6993 1.68573 1.67364 2.99182 3.02449 2.98925 3.0147 2.98492 3.02408 2.99182 3.02449 1.74647 1.73316 1.71193 1.6993 1.78981 1.77568 1.74647 1.73316 2.98492 2.96984 3.02408 3.01461 2.96984 2.94789 3.01461 2.99741 1.84097 1.82605 1.78981 1.77568 1.89822 1.88262 1.84097 1.82605 2.92018 2.97373 2.94789 2.99741 2.88764 2.94463 2.92018 2.97373 1.95972 1.94358 1.89822 1.88262 2.02387 2.0073 1.95972 1.94358 2.88764 2.85098 2.94463 2.91094 2.85098 2.81073 2.91094 2.87333 2.08941 2.07249 2.02387 2.0073 2.15537 2.13815 2.08941 2.07249 2.81073 2.76731 2.87333 2.83228 2.76731 2.72102 2.83228 2.78816 2.22103 2.20352 2.15537 2.13815 2.28585 2.26805 2.22103 2.20352 2.67209 2.74126 2.72102 2.78816 2.62069 2.69178 2.67209 2.74126 2.34942 2.33133 2.28585 2.26805 2.41146 2.39306 2.34942 2.33133 2.56696 2.63989 2.62069 2.69178 2.51103 2.58571 2.56696 2.63989 2.47175 2.45301 2.41146 2.39306 2.53012 2.51103 2.47175 2.45301 3.94005 3.83085 4.11127 3.9646 4.07636 3.94005 4.22014 4.11127 3.80397 3.76765 4.07636 3.94005 3.76765 3.75039 3.94005 3.83085 3.63996 3.46614 3.71976 3.69724 3.71976 3.69724 3.83085 3.9646 3.63996 3.71976 3.75039 3.83085 1.74139 1.75834 1.77267 1.78337 1.74139 1.71336 1.75834 1.75014 1.75834 1.75014 1.78337 1.78991 2.96608 2.89642 3.01806 2.92761 2.89642 2.80016 2.92761 2.85898 3.01806 2.92761 2.98317 2.85898 2.53012 2.57396 2.51103 2.58571 1.66105 1.65338 1.6541 1.64664 1.67379 1.66105 1.65201 1.6541 1.67379 1.67043 1.66105 1.65338 61.3795 61.543 60.7618 60.8407 61.2343 61.3795 60.677 60.7618 61.1066 61.2343 60.5875 60.677 60.9914 61.1066 60.5014 60.5875 58.2934 58.3373 57.5455 57.5916 58.213 58.2934 57.4536 57.5455 59.0362 59.1044 58.213 58.2934 59.1044 59.1478 58.2934 58.3373 59.8929 59.9516 59.1044 59.1478 59.8252 59.8929 59.0362 59.1044 60.5014 60.5875 59.8252 59.8929 60.5875 60.677 59.8929 59.9516 60.0903 60.1658 59.3801 59.4726 59.3801 59.4726 58.4742 58.5956 59.2873 59.3801 58.3558 58.4742 60.0175 60.0903 59.2873 59.3801 60.0147 59.9726 59.0827 59.0035 60.9588 60.9819 60.0147 59.9726 60.9819 60.9629 59.9726 59.9019 59.9726 59.9019 59.0035 58.9028 58.3558 58.4742 57.1666 57.3547 58.4742 58.5956 57.3547 57.5596 57.3547 57.5596 55.9488 56.4802 61.543 61.725 60.8407 60.9096 61.725 61.922 60.9096 60.9588 62.1155 62.2579 60.9819 60.9629 61.922 62.1155 60.9588 60.9819 60.5781 60.6394 60.0903 60.1658 60.5275 60.5781 60.0175 60.0903 59.0827 59.0035 58.156 58.03 59.0035 58.9028 58.03 57.8747 58.03 57.8747 57.0618 56.7002 58.156 58.03 57.2962 57.0618 60.7118 60.7942 60.2457 60.329 60.6394 60.7118 60.1658 60.2457 60.8875 60.9914 60.4154 60.5014 60.7942 60.8875 60.329 60.4154 60.2457 60.329 59.5673 59.6581 59.5673 59.6581 58.7232 58.839 59.4726 59.5673 58.5956 58.7232 60.1658 60.2457 59.4726 59.5673 58.0974 58.213 57.3125 57.4536 57.9456 58.0974 57.1147 57.3125 58.839 58.9484 57.9456 58.0974 58.9484 59.0362 58.0974 58.213 60.329 60.4154 59.6581 59.747 60.4154 60.5014 59.747 59.8252 59.747 59.8252 58.9484 59.0362 59.6581 59.747 58.839 58.9484 60.0286 60.0147 59.1356 59.0827 60.0181 60.0286 59.1629 59.1356 60.8407 60.9096 60.0181 60.0286 60.9096 60.9588 60.0286 60.0147 57.5596 57.7622 56.4802 56.8464 58.5956 58.7232 57.5596 57.7622 58.7232 58.839 57.7622 57.9456 57.7622 57.9456 56.8464 57.1147 59.1674 59.1629 58.3453 58.3156 58.3453 58.3156 57.5929 57.5478 58.3373 58.3453 57.5916 57.5929 59.1478 59.1674 58.3373 58.3453 59.1629 59.1356 58.3156 58.2528 59.1356 59.0827 58.2528 58.156 58.2528 58.156 57.4518 57.2962 58.3156 58.2528 57.5478 57.4518 59.9516 59.9909 59.1478 59.1674 60.677 60.7618 59.9516 59.9909 60.7618 60.8407 59.9909 60.0181 59.9909 60.0181 59.1674 59.1629 46.894 46.7049 48.5786 48.5286 47.0707 46.894 48.626 48.5786 49.0589 48.9956 49.6643 49.6436 48.9956 48.9361 49.6436 49.6315 48.9361 48.8774 49.6315 49.6293 48.8774 48.8228 49.6293 49.6403 47.2333 47.0707 48.6727 48.626 47.381 47.2333 48.7198 48.6727 47.9978 47.8833 48.9956 48.9361 48.1076 47.9978 49.0589 48.9956 48.626 48.5786 49.8757 49.9938 48.5786 48.5286 49.9938 50.1288 47.7666 47.6463 48.8774 48.8228 47.8833 47.7666 48.9361 48.8774 48.7198 48.6727 49.7133 49.782 48.6727 48.626 49.782 49.8757 48.5286 48.4748 50.1288 50.2619 48.4748 48.4073 50.2619 50.3609 46.5143 46.3045 48.4748 48.4073 46.7049 46.5143 48.5286 48.4748 49.1924 49.1233 49.7233 49.6911 49.1233 49.0589 49.6911 49.6643 48.2146 48.1076 49.1233 49.0589 48.3263 48.2146 49.1924 49.1233 47.2771 47.0711 48.3263 48.2146 48.8228 48.7698 49.6403 49.6672 48.7698 48.7198 49.6672 49.7133 47.5175 47.381 48.7698 48.7198 47.6463 47.5175 48.8228 48.7698 129.213 129.08 108.262 108.08 129.08 129.047 108.08 107.908 195.831 195.763 194.455 194.387 194.455 194.387 192.6 192.533 194.477 194.455 192.623 192.6 195.853 195.831 194.477 194.455 189.786 189.301 191.744 191.249 189.301 188.745 191.249 190.695 191.249 190.695 192.677 192.126 191.744 191.249 193.181 192.677 186.681 186.137 189.301 188.745 187.138 186.681 189.786 189.301 183.633 183.192 187.138 186.681 183.192 182.685 186.681 186.137 154.485 141.139 154.251 140.938 154.647 141.269 154.485 141.139 141.269 123.779 141.139 123.627 141.139 123.627 140.938 123.414 196.769 195.752 196.658 195.639 196.658 195.639 196.505 195.488 197.33 196.658 197.172 196.505 197.442 196.769 197.33 196.658 157.965 157.609 168.135 167.854 157.609 157.174 167.854 167.499 167.854 167.499 175.718 175.452 168.135 167.854 175.915 175.718 187.448 186.967 184.087 183.682 189.972 189.46 187.448 186.967 189.46 188.903 186.967 186.445 186.967 186.445 183.682 183.217 192.431 192.355 194.387 194.315 194.387 194.315 195.821 195.752 194.415 194.387 195.846 195.821 192.465 192.431 194.415 194.387 186.934 186.826 182.712 182.54 186.826 186.663 182.54 182.303 182.54 182.303 176.965 176.658 182.712 182.54 177.207 176.965 193.668 193.202 192.292 191.826 192.292 191.826 190.438 189.972 192.714 192.292 190.86 190.438 194.089 193.668 192.714 192.292 187.516 187.138 190.191 189.786 187.84 187.516 190.553 190.191 184.223 183.954 187.84 187.516 183.954 183.633 187.516 187.138 197.51 197.487 196.842 196.82 197.487 197.419 196.82 196.752 196.82 196.752 195.831 195.763 196.842 196.82 195.853 195.831 197.51 197.898 197.487 197.875 197.898 198.03 197.875 198.008 197.875 198.008 197.808 197.94 197.487 197.875 197.419 197.808 191.826 191.314 189.972 189.46 193.202 192.69 191.826 191.314 192.69 192.133 191.314 190.757 191.314 190.757 189.46 188.903 193.679 193.122 192.69 192.133 194.191 193.679 193.202 192.69 194.858 194.346 194.191 193.679 194.346 193.789 193.679 193.122 190.107 190.005 186.826 186.663 190.163 190.107 186.934 186.826 192.623 192.6 190.163 190.107 192.6 192.533 190.107 190.005 192.179 191.744 193.636 193.181 192.569 192.179 194.046 193.636 190.553 190.191 192.569 192.179 190.191 189.786 192.179 191.744 196.861 195.846 196.837 195.821 196.837 195.821 196.769 195.752 197.51 196.837 197.442 196.769 197.533 196.861 197.51 196.837 198.03 197.913 198.008 197.89 197.913 197.533 197.89 197.51 197.89 197.51 197.822 197.442 198.008 197.89 197.94 197.822 196.122 196.511 195.746 196.134 196.454 196.842 196.122 196.511 196.842 196.974 196.511 196.643 196.511 196.643 196.134 196.267 195.074 194.046 194.662 193.636 194.662 193.636 194.202 193.181 195.347 194.662 194.881 194.202 195.769 195.074 195.347 194.662 192.227 192.063 194.198 194.039 194.198 194.039 195.639 195.488 194.315 194.198 195.752 195.639 192.355 192.227 194.315 194.198 195.246 195.378 194.734 194.867 194.734 194.867 194.177 194.31 194.346 194.734 193.789 194.177 194.858 195.246 194.346 194.734 194.369 193.694 193.812 193.14 194.881 194.202 194.369 193.694 194.202 193.181 193.694 192.677 193.694 192.677 193.14 192.126 195.746 195.324 195.079 194.657 195.324 194.858 194.657 194.191 194.657 194.191 193.668 193.202 195.079 194.657 194.089 193.668 190.438 189.972 187.83 187.448 187.83 187.448 184.373 184.087 188.167 187.83 184.509 184.373 190.86 190.438 188.167 187.83 196.134 196.267 195.713 195.845 195.713 195.845 195.246 195.378 195.324 195.713 194.858 195.246 195.746 196.134 195.324 195.713 197.307 197.149 196.639 196.481 196.639 196.481 195.65 195.492 196.752 196.639 195.763 195.65 197.419 197.307 196.752 196.639 196.145 195.436 195.769 195.074 196.476 195.753 196.145 195.436 195.753 194.682 195.436 194.382 195.436 194.382 195.074 194.046 194.867 194.749 194.31 194.192 195.378 195.261 194.867 194.749 195.261 194.881 194.749 194.369 194.749 194.369 194.192 193.812 197.71 197.33 197.552 197.172 197.827 197.71 197.669 197.552 197.94 197.822 197.827 197.71 197.822 197.442 197.71 197.33 197.695 197.827 197.537 197.669 197.307 197.695 197.149 197.537 197.419 197.808 197.307 197.695 197.808 197.94 197.695 197.827 195.845 195.727 195.378 195.261 196.267 196.149 195.845 195.727 196.149 195.769 195.727 195.347 195.727 195.347 195.261 194.881 196.856 196.476 196.525 196.145 196.525 196.145 196.149 195.769 196.643 196.525 196.267 196.149 196.974 196.856 196.643 196.525 195.455 195.079 194.465 194.089 195.786 195.455 194.796 194.465 196.454 196.122 195.786 195.455 196.122 195.746 195.455 195.079 196.481 196.278 195.492 195.289 197.149 196.945 196.481 196.278 196.945 196.697 196.278 196.03 196.278 196.03 195.289 195.042 197.149 197.537 196.945 197.334 197.537 197.669 197.334 197.466 197.334 197.466 197.086 197.218 196.945 197.334 196.697 197.086 193.09 192.714 191.236 190.86 193.421 193.09 191.567 191.236 194.796 194.465 193.421 193.09 194.465 194.089 193.09 192.714 197.349 196.968 197.101 196.72 197.466 197.349 197.218 197.101 197.669 197.552 197.466 197.349 197.552 197.172 197.349 196.968 196.579 196.454 195.912 195.786 195.912 195.786 194.923 194.796 196.03 195.912 195.042 194.923 196.697 196.579 196.03 195.912 195.65 195.492 194.273 194.115 194.273 194.115 192.416 192.255 194.387 194.273 192.533 192.416 195.763 195.65 194.387 194.273 197.086 197.218 196.968 197.1 196.968 197.1 196.842 196.974 196.579 196.968 196.454 196.842 196.697 197.086 196.579 196.968 197.218 197.101 197.1 196.982 197.101 196.72 196.982 196.601 196.982 196.601 196.856 196.476 197.1 196.982 196.974 196.856 193.853 193.631 195.308 195.092 194.039 193.853 195.488 195.308 192.063 191.862 194.039 193.853 191.862 191.627 193.853 193.631 196.505 195.488 196.312 195.308 196.312 195.308 196.08 195.092 196.968 196.312 196.72 196.08 197.172 196.505 196.968 196.312 192.416 192.255 189.828 189.602 189.828 189.602 186.406 186.026 190.005 189.828 186.663 186.406 192.533 192.416 190.005 189.828 191.146 190.863 193.19 192.897 190.863 190.553 192.897 192.569 192.897 192.569 194.382 194.046 193.19 192.897 194.682 194.382 194.923 194.796 193.549 193.421 193.549 193.421 191.698 191.567 193.67 193.549 191.821 191.698 195.042 194.923 193.67 193.549 193.914 193.67 192.061 191.821 194.115 193.914 192.255 192.061 195.492 195.289 194.115 193.914 195.289 195.042 193.914 193.67 186.404 186.333 189.856 189.811 186.333 186.222 189.811 189.719 189.811 189.719 192.431 192.355 189.856 189.811 192.465 192.431 183.633 178.962 183.192 178.61 178.962 172.867 178.61 172.574 178.61 172.574 178.146 172.198 183.192 178.61 182.685 178.146 196.72 196.08 196.601 195.923 196.08 195.092 195.923 194.891 195.923 194.891 195.753 194.682 196.601 195.923 196.476 195.753 191.39 191.146 193.42 193.19 193.42 193.19 194.891 194.682 193.631 193.42 195.092 194.891 191.627 191.39 193.631 193.42 179.382 178.995 173.791 173.491 179.698 179.382 174.017 173.791 184.087 183.682 179.698 179.382 183.682 183.217 179.382 178.995 189.379 189.144 192.063 191.862 185.808 185.513 189.379 189.144 185.513 185.218 189.144 188.872 189.144 188.872 191.862 191.627 181.864 175.915 181.741 175.718 181.741 175.718 181.568 175.452 186.333 181.741 186.222 181.568 186.404 181.864 186.333 181.741 164.939 164.719 172.867 172.574 154.647 154.485 164.939 164.719 154.485 154.251 164.719 164.42 164.719 164.42 172.574 172.198 129.894 129.486 108.873 108.556 129.486 129.213 108.556 108.262 166.531 166.318 157.108 156.967 166.678 166.531 157.206 157.108 174.017 173.791 166.678 166.531 173.791 173.491 166.531 166.318 189.719 189.575 192.355 192.227 186.222 186.05 189.719 189.575 186.05 185.808 189.575 189.379 189.575 189.379 192.227 192.063 176.965 176.658 169.722 169.354 169.722 169.354 160.318 159.915 170.033 169.722 160.681 160.318 177.207 176.965 170.033 169.722 179.437 173.22 179.243 173.053 179.243 173.053 178.962 172.867 183.954 179.243 183.633 178.962 184.223 179.437 183.954 179.243 130.805 130.33 109.605 109.255 130.33 129.894 109.255 108.873 129.047 128.98 107.908 107.744 128.98 128.934 107.744 107.567 160.318 159.915 148.083 147.653 148.083 147.653 132.053 131.672 148.467 148.083 132.409 132.053 160.681 160.318 148.467 148.083 144.652 127.133 144.25 126.745 144.25 126.745 143.779 126.313 157.609 144.25 157.174 143.779 157.965 144.652 157.609 144.25 128.934 128.825 107.567 107.365 128.825 128.69 107.365 107.124 144.86 144.751 128.825 128.69 144.921 144.86 128.934 128.825 157.206 157.108 144.921 144.86 157.108 156.967 144.86 144.751 174.036 174.143 166.614 166.717 166.614 166.717 157.038 157.192 166.448 166.614 156.808 157.038 173.926 174.036 166.448 166.614 167.31 166.873 157.763 157.302 174.68 174.231 167.31 166.873 174.231 173.926 166.873 166.448 166.873 166.448 157.302 156.808 167.879 167.31 158.393 157.763 168.427 167.879 158.954 158.393 175.794 175.235 168.427 167.879 175.235 174.68 167.879 167.31 123.779 100.369 123.627 100.118 141.232 123.856 141.255 123.78 141.255 123.78 141.266 123.868 154.701 141.255 154.676 141.266 154.734 141.232 154.701 141.255 131.672 131.24 110.282 109.964 131.24 130.805 109.964 109.605 141.311 123.848 141.269 123.779 154.706 141.311 154.647 141.269 154.676 141.266 154.706 141.311 141.266 123.868 141.311 123.848 155.51 155.08 166.083 165.777 166.083 165.777 174.181 173.927 166.474 166.083 174.558 174.181 155.903 155.51 166.474 166.083 165.121 165.067 173.22 173.053 154.676 154.706 165.121 165.067 154.706 154.647 165.067 164.939 165.067 164.939 173.053 172.867 157.192 157.222 144.92 144.952 157.222 157.206 144.952 144.921 144.952 144.921 128.98 128.934 144.92 144.952 129.047 128.98 191.698 191.567 188.577 188.372 188.577 188.372 184.214 183.897 188.77 188.577 184.515 184.214 191.821 191.698 188.77 188.577 180.215 179.861 174.68 174.231 184.515 184.214 180.215 179.861 184.214 183.897 179.861 179.513 179.861 179.513 174.231 173.926 156.608 143.233 155.903 142.645 157.174 143.779 156.608 143.233 143.779 126.313 143.233 125.811 143.233 125.811 142.645 125.177 147.653 147.203 131.672 131.24 159.915 159.445 147.653 147.203 159.445 158.954 147.203 146.699 147.203 146.699 131.24 130.805 142.099 124.537 141.606 124.198 155.51 142.099 155.08 141.606 155.903 142.645 155.51 142.099 142.645 125.177 142.099 124.537 144.745 144.857 129.213 129.08 156.808 157.038 144.745 144.857 157.038 157.192 144.857 144.92 144.857 144.92 129.08 129.047 165.481 165.323 173.682 173.485 165.777 165.481 173.927 173.682 155.08 154.856 165.777 165.481 154.856 154.734 165.481 165.323 158.954 158.393 146.699 146.179 158.393 157.763 146.179 145.657 146.179 145.657 130.33 129.894 146.699 146.179 130.805 130.33 157.302 156.808 145.194 144.745 145.194 144.745 129.486 129.213 145.657 145.194 129.894 129.486 157.763 157.302 145.657 145.194 154.856 141.308 154.734 141.232 155.08 141.606 154.856 141.308 141.606 124.198 141.308 123.878 141.308 123.878 141.232 123.856 185.808 180.97 185.513 180.66 180.97 174.558 180.66 174.181 180.66 174.181 180.357 173.927 185.513 180.66 185.218 180.357 180.913 180.215 175.235 174.68 181.517 180.913 175.794 175.235 186.026 185.314 181.517 180.913 185.314 184.515 180.913 180.215 183.897 184.266 179.513 179.784 184.266 184.509 179.784 179.932 179.784 179.932 174.036 174.143 179.513 179.784 173.926 174.036 192.061 191.821 189.21 188.77 189.21 188.77 185.314 184.515 189.602 189.21 186.026 185.314 192.255 192.061 189.602 189.21 154.701 154.676 165.227 165.121 165.227 165.121 173.336 173.22 165.323 165.227 173.485 173.336 154.734 154.701 165.323 165.227 179.623 173.336 179.437 173.22 184.464 179.623 184.223 179.437 184.692 179.815 184.464 179.623 179.815 173.485 179.623 173.336 179.895 179.698 174.139 174.017 179.932 179.895 174.143 174.139 184.509 184.373 179.932 179.895 184.373 184.087 179.895 179.698 188.381 188.121 191.146 190.863 184.692 184.464 188.381 188.121 184.464 184.223 188.121 187.84 188.121 187.84 190.863 190.553 186.406 186.026 181.973 181.517 181.973 181.517 176.268 175.794 182.303 181.973 176.658 176.268 186.663 186.406 182.303 181.973 188.292 188.167 184.266 184.509 188.372 188.292 183.897 184.266 191.567 191.236 188.372 188.292 191.236 190.86 188.292 188.167 181.568 175.452 181.303 175.08 181.303 175.08 180.97 174.558 186.05 181.303 185.808 180.97 186.222 181.568 186.05 181.303 167.037 166.474 175.08 174.558 167.499 167.037 175.452 175.08 157.174 156.608 167.499 167.037 156.608 155.903 167.037 166.474 169.354 168.925 159.915 159.445 176.658 176.268 169.354 168.925 176.268 175.794 168.925 168.427 168.925 168.427 159.445 158.954 174.143 174.139 166.717 166.745 174.139 174.017 166.745 166.678 166.745 166.678 157.222 157.206 166.717 166.745 157.192 157.222 185.218 184.968 188.872 188.641 184.968 184.692 188.641 188.381 188.641 188.381 191.39 191.146 188.872 188.641 191.627 191.39 184.968 180.093 184.692 179.815 185.218 180.357 184.968 180.093 180.357 173.927 180.093 173.682 180.093 173.682 179.815 173.485 98.1587 67.8325 97.4934 71.1647 123.414 99.8144 120.622 98.1587 47.6535 47.0201 52.0258 53.0304 52.0258 53.030