# vtk DataFile Version 3.0
#This file was generated by the deal.II library on 2020/5/26 at 18:52:14
ASCII
DATASET UNSTRUCTURED_GRID

POINTS 29820 double
0 0 0
0.466667 0 0
0 0.4 0
0.45119 0.4 0
0.466667 0 0
0.933333 0 0
0.45119 0.4 0
0.902381 0.4 0
0.483333 23.6 0
0.966667 23.6 0
0.466667 24 0
0.933333 24 0
0 23.6 0
0.483333 23.6 0
0 24 0
0.466667 24 0
0 23.2 0
0.5 23.2 0
0 23.6 0
0.483333 23.6 0
0.5 23.2 0
1 23.2 0
0.483333 23.6 0
0.966667 23.6 0
0.933333 0 0
1.4 0 0
0.902381 0.4 0
1.35357 0.4 0
1.4 0 0
1.86667 0 0
1.35357 0.4 0
1.80476 0.4 0
1.45 23.6 0
1.93333 23.6 0
1.4 24 0
1.86667 24 0
0.966667 23.6 0
1.45 23.6 0
0.933333 24 0
1.4 24 0
1 23.2 0
1.5 23.2 0
0.966667 23.6 0
1.45 23.6 0
1.5 23.2 0
2 23.2 0
1.45 23.6 0
1.93333 23.6 0
1.86667 0 0
2.33333 0 0
1.80476 0.4 0
2.25595 0.4 0
2.33333 0 0
2.8 0 0
2.25595 0.4 0
2.70714 0.4 0
2.41667 23.6 0
2.9 23.6 0
2.33333 24 0
2.8 24 0
1.93333 23.6 0
2.41667 23.6 0
1.86667 24 0
2.33333 24 0
2 23.2 0
2.5 23.2 0
1.93333 23.6 0
2.41667 23.6 0
2.8 0 0
3.26667 0 0
2.70714 0.4 0
3.15833 0.4 0
3.26667 0 0
3.73333 0 0
3.15833 0.4 0
3.60952 0.4 0
3.38333 23.6 0
3.86667 23.6 0
3.26667 24 0
3.73333 24 0
2.9 23.6 0
3.38333 23.6 0
2.8 24 0
3.26667 24 0
3.73333 0 0
4.2 0 0
3.60952 0.4 0
4.06071 0.400002 0
4.2 0 0
4.66667 0 0
4.06071 0.400002 0
4.51187 0.400017 0
4.35 23.6 0
4.83333 23.6 0
4.2 24 0
4.66667 24 0
3.86667 23.6 0
4.35 23.6 0
3.73333 24 0
4.2 24 0
4.66667 0 0
5.13333 0 0
4.51187 0.400017 0
4.96274 0.40018 0
5.13333 0 0
5.6 0 0
4.96274 0.40018 0
5.412 0.401188 0
5.31667 23.6 0
5.8 23.6 0
5.13333 24 0
5.6 24 0
4.83333 23.6 0
5.31667 23.6 0
4.66667 24 0
5.13333 24 0
7.7656 0.408656 0
8.08564 0.489853 0
7.625 0.8 0
8 0.8 0
7.37297 0.372717 0
7.7656 0.408656 0
7.25 0.8 0
7.625 0.8 0
7.46667 0 0
7.93333 0 0
7.37297 0.372717 0
7.7656 0.408656 0
7.93333 0 0
8.4 0 0
7.7656 0.408656 0
8.08564 0.489853 0
5.6 0 0
6.06667 0 0
5.412 0.401188 0
5.851 0.407784 0
6.06667 0 0
6.53333 0 0
5.851 0.407784 0
6.22598 0.450874 0
8.4 1.5 0
8.20238 1.40048 0
8.4 1 0
8.21539 0.946782 0
8.4 2 0
8.20022 1.8875 0
8.4 1.5 0
8.20238 1.40048 0
8 1.77391 0
8 1.28696 0
8.20022 1.8875 0
8.20238 1.40048 0
8 1.28696 0
8 0.8 0
8.20238 1.40048 0
8.21539 0.946782 0
8.21496 23.0543 0
8.2025 22.599 0
8.4 23 0
8.4 22.5 0
8 23.2 0
8 22.713 0
8.21496 23.0543 0
8.2025 22.599 0
8 22.2261 0
8.20035 22.1121 0
8 22.713 0
8.2025 22.599 0
8.20035 22.1121 0
8.4 22 0
8.2025 22.599 0
8.4 22.5 0
6.28333 23.6 0
6.76667 23.6 0
6.06667 24 0
6.53333 24 0
5.8 23.6 0
6.28333 23.6 0
5.6 24 0
6.06667 24 0
6 23.2 0
6.5 23.2 0
5.8 23.6 0
6.28333 23.6 0
6.5 23.2 0
7 23.2 0
6.28333 23.6 0
6.76667 23.6 0
7.69489 23.5856 0
7.5 23.2 0
8.06391 23.5091 0
8 23.2 0
7.69489 23.5856 0
8.06391 23.5091 0
7.93333 24 0
8.4 24 0
7.23333 23.6 0
7.69489 23.5856 0
7.46667 24 0
7.93333 24 0
7.23333 23.6 0
7 23.2 0
7.69489 23.5856 0
7.5 23.2 0
8 1.77391 0
8.20022 1.8875 0
8 2.26087 0
8.20003 2.3805 0
8.4 2 0
8.4 2.5 0
8.20022 1.8875 0
8.20003 2.3805 0
8.4 2.5 0
8.4 3 0
8.20003 2.3805 0
8.2 2.87391 0
8.20005 21.6194 0
8.4 21.5 0
8.20035 22.1121 0
8.4 22 0
8 21.7391 0
8.20005 21.6194 0
8 22.2261 0
8.20035 22.1121 0
8.2 21.1261 0
8.4 21 0
8.20005 21.6194 0
8.4 21.5 0
8.4 3 0
8.4 3.5 0
8.2 2.87391 0
8.2 3.36739 0
8.4 3.5 0
8.4 4 0
8.2 3.36739 0
8.2 3.86087 0
8.2 20.6326 0
8.4 20.5 0
8.2 21.1261 0
8.4 21 0
8.2 20.1391 0
8.4 20 0
8.2 20.6326 0
8.4 20.5 0
7 0 0
7.46667 0 0
7.00198 0.331094 0
7.37297 0.372717 0
7.00198 0.331094 0
7.37297 0.372717 0
6.94022 0.576588 0
7.25 0.8 0
7.00198 0.331094 0
6.94022 0.576588 0
6.69426 0.367442 0
6.75692 0.535711 0
7 0 0
7.00198 0.331094 0
6.53333 0 0
6.69426 0.367442 0
8.4 4.5 0
8.2 4.35435 0
8.4 4 0
8.2 3.86087 0
8.4 5 0
8.2 4.84783 0
8.4 4.5 0
8.2 4.35435 0
8.2 19.6457 0
8.4 19.5 0
8.2 20.1391 0
8.4 20 0
8.2 19.1522 0
8.4 19 0
8.2 19.6457 0
8.4 19.5 0
8.4 5.5 0
8.2 5.3413 0
8.4 5 0
8.2 4.84783 0
8.4 6 0
8.2 5.83478 0
8.4 5.5 0
8.2 5.3413 0
8.2 18.6587 0
8.4 18.5 0
8.2 19.1522 0
8.4 19 0
8.2 18.1652 0
8.4 18 0
8.2 18.6587 0
8.4 18.5 0
8.4 6 0
8.4 6.5 0
8.2 5.83478 0
8.2 6.32826 0
8.4 6.5 0
8.4 7 0
8.2 6.32826 0
8.2 6.82174 0
8.2 17.6717 0
8.4 17.5 0
8.2 18.1652 0
8.4 18 0
8.2 17.1783 0
8.4 17 0
8.2 17.6717 0
8.4 17.5 0
8.4 7.5 0
8.2 7.31522 0
8.4 7 0
8.2 6.82174 0
8.4 8 0
8.2 7.8087 0
8.4 7.5 0
8.2 7.31522 0
8.2 16.6848 0
8.4 16.5 0
8.2 17.1783 0
8.4 17 0
8.2 16.1913 0
8.4 16 0
8.2 16.6848 0
8.4 16.5 0
8.4 8 0
8.4 8.5 0
8.2 7.8087 0
8.2 8.30217 0
8.4 8.5 0
8.4 9 0
8.2 8.30217 0
8.2 8.79565 0
8.2 15.6978 0
8.4 15.5 0
8.2 16.1913 0
8.4 16 0
8.2 15.2043 0
8.4 15 0
8.2 15.6978 0
8.4 15.5 0
8.4 9 0
8.4 9.5 0
8.2 8.79565 0
8.2 9.28913 0
8.4 9.5 0
8.4 10 0
8.2 9.28913 0
8.2 9.78261 0
8.2 14.7109 0
8.4 14.5 0
8.2 15.2043 0
8.4 15 0
8.2 14.2174 0
8.4 14 0
8.2 14.7109 0
8.4 14.5 0
8.4 10.5 0
8.2 10.2761 0
8.4 10 0
8.2 9.78261 0
8.4 11 0
8.2 10.7696 0
8.4 10.5 0
8.2 10.2761 0
8.2 13.7239 0
8.4 13.5 0
8.2 14.2174 0
8.4 14 0
8.2 13.2304 0
8.4 13 0
8.2 13.7239 0
8.4 13.5 0
8.4 11.5 0
8.2 11.263 0
8.4 11 0
8.2 10.7696 0
8.4 12 0
8.2 11.7565 0
8.4 11.5 0
8.2 11.263 0
8.2 12.737 0
8.4 12.5 0
8.2 13.2304 0
8.4 13 0
8.2 12.2435 0
8.4 12 0
8.2 12.737 0
8.4 12.5 0
6.47056 0.554541 0
6.65423 0.648139 0
6.3 0.8 0
6.5 0.8 0
6.22598 0.450874 0
6.47056 0.554541 0
6.1 0.8 0
6.3 0.8 0
6.53333 0 0
6.69426 0.367442 0
6.22598 0.450874 0
6.47056 0.554541 0
6.69426 0.367442 0
6.75692 0.535711 0
6.47056 0.554541 0
6.65423 0.648139 0
6.94022 0.576588 0
7.25 0.8 0
6.82768 0.687981 0
6.875 0.8 0
6.82768 0.687981 0
6.875 0.8 0
6.65423 0.648139 0
6.5 0.8 0
6.94022 0.576588 0
6.82768 0.687981 0
6.75692 0.535711 0
6.65423 0.648139 0
7.23333 23.6 0
7 23.7333 0
7 23.2 0
6.76667 23.6 0
7.23333 23.6 0
7.46667 24 0
7 23.7333 0
7 24 0
7 23.7333 0
7 24 0
6.76667 23.6 0
6.53333 24 0
8.4 0 0
8.4 0.5 0
8.08564 0.489853 0
8.24539 0.628305 0
8.4 0.5 0
8.4 1 0
8.24539 0.628305 0
8.21539 0.946782 0
8.08564 0.489853 0
8.24539 0.628305 0
8 0.8 0
8.21539 0.946782 0
8.2 12.2435 0
8.13333 12 0
8.4 12 0
8.2 11.7565 0
8.2409 23.3709 0
8.21496 23.0543 0
8.4 23.5 0
8.4 23 0
8.06391 23.5091 0
8.2409 23.3709 0
8.4 24 0
8.4 23.5 0
8.06391 23.5091 0
8 23.2 0
8.2409 23.3709 0
8.21496 23.0543 0
3.92285 19.2089 0
4.35873 19.2071 0
3.92402 19.6155 0
4.36024 19.6131 0
3.48654 19.2104 0
3.92285 19.2089 0
3.48709 19.6173 0
3.92402 19.6155 0
3.04979 19.2095 0
3.48654 19.2104 0
3.04963 19.6194 0
3.48709 19.6173 0
2.61306 19.209 0
3.04979 19.2095 0
2.61199 19.618 0
3.04963 19.6194 0
3.04985 20.8074 0
3.4864 20.8076 0
3.05 21.2 0
3.48571 21.2 0
2.6132 20.8075 0
3.04985 20.8074 0
2.61429 21.2 0
3.05 21.2 0
2.61227 20.4138 0
3.04975 20.4138 0
2.6132 20.8075 0
3.04985 20.8074 0
3.04975 20.4138 0
3.48707 20.4145 0
3.04985 20.8074 0
3.4864 20.8076 0
3.04974 20.0186 0
3.48724 20.0176 0
3.04975 20.4138 0
3.48707 20.4145 0
2.61181 20.0173 0
3.04974 20.0186 0
2.61227 20.4138 0
3.04975 20.4138 0
2.61199 19.618 0
3.04963 19.6194 0
2.61181 20.0173 0
3.04974 20.0186 0
3.04963 19.6194 0
3.48709 19.6173 0
3.04974 20.0186 0
3.48724 20.0176 0
0.432966 19.604 0
0.866169 19.6083 0
0.432331 20.0047 0
0.865158 20.0094 0
0.432331 20.0047 0
0.865158 20.0094 0
0.431771 20.4049 0
0.864168 20.4095 0
0 20 0
0.432331 20.0047 0
0 20.4 0
0.431771 20.4049 0
0 19.6 0
0.432966 19.604 0
0 20 0
0.432331 20.0047 0
5.23131 20.0079 0
5.66598 20.0043 0
5.23131 20.4073 0
5.66612 20.4043 0
5.23107 19.6073 0
5.66553 19.6034 0
5.23131 20.0079 0
5.66598 20.0043 0
5.66553 19.6034 0
6.1 19.6 0
5.66598 20.0043 0
6.1 20 0
5.66598 20.0043 0
6.1 20 0
5.66612 20.4043 0
6.1 20.4 0
0 20.4 0
0.431771 20.4049 0
0 20.8 0
0.433758 20.8025 0
0.431771 20.4049 0
0.864168 20.4095 0
0.433758 20.8025 0
0.867586 20.8051 0
4.35873 19.2071 0
4.79445 19.2057 0
4.36024 19.6131 0
4.79575 19.61 0
4.79445 19.2057 0
5.22993 19.2041 0
4.79575 19.61 0
5.23107 19.6073 0
5.66501 19.202 0
6.1 19.2 0
5.66553 19.6034 0
6.1 19.6 0
5.22993 19.2041 0
5.66501 19.202 0
5.23107 19.6073 0
5.66553 19.6034 0
0.434142 19.2024 0
0.868611 19.2046 0
0.432966 19.604 0
0.866169 19.6083 0
0 19.2 0
0.434142 19.2024 0
0 19.6 0
0.432966 19.604 0
5.23131 20.4073 0
5.66612 20.4043 0
5.23046 20.8047 0
5.66527 20.8023 0
5.66612 20.4043 0
6.1 20.4 0
5.66527 20.8023 0
6.1 20.8 0
5.66527 20.8023 0
6.1 20.8 0
5.66429 21.2 0
6.1 21.2 0
5.23046 20.8047 0
5.66527 20.8023 0
5.22857 21.2 0
5.66429 21.2 0
1.30395 19.2062 0
1.73965 19.2079 0
1.30084 19.6116 0
1.73679 19.6143 0
0.868611 19.2046 0
1.30395 19.2062 0
0.866169 19.6083 0
1.30084 19.6116 0
2.17624 19.2085 0
2.61306 19.209 0
2.17407 19.6159 0
2.61199 19.618 0
1.73965 19.2079 0
2.17624 19.2085 0
1.73679 19.6143 0
2.17407 19.6159 0
1.30084 19.6116 0
1.73679 19.6143 0
1.30041 20.0122 0
1.73639 20.0151 0
1.30041 20.0122 0
1.73639 20.0151 0
1.30061 20.4111 0
1.73674 20.4137 0
0.865158 20.0094 0
1.30041 20.0122 0
0.864168 20.4095 0
1.30061 20.4111 0
0.866169 19.6083 0
1.30084 19.6116 0
0.865158 20.0094 0
1.30041 20.0122 0
2.17646 20.8072 0
2.6132 20.8075 0
2.17857 21.2 0
2.61429 21.2 0
1.73953 20.8074 0
2.17646 20.8072 0
1.74286 21.2 0
2.17857 21.2 0
1.73674 20.4137 0
2.1748 20.413 0
1.73953 20.8074 0
2.17646 20.8072 0
2.1748 20.413 0
2.61227 20.4138 0
2.17646 20.8072 0
2.6132 20.8075 0
1.73679 19.6143 0
2.17407 19.6159 0
1.73639 20.0151 0
2.17416 20.0157 0
2.17407 19.6159 0
2.61199 19.618 0
2.17416 20.0157 0
2.61181 20.0173 0
2.17416 20.0157 0
2.61181 20.0173 0
2.1748 20.413 0
2.61227 20.4138 0
1.73639 20.0151 0
2.17416 20.0157 0
1.73674 20.4137 0
2.1748 20.413 0
4.79646 20.0118 0
5.23131 20.0079 0
4.79621 20.4106 0
5.23131 20.4073 0
4.36112 20.0161 0
4.79646 20.0118 0
4.36052 20.4134 0
4.79621 20.4106 0
4.36024 19.6131 0
4.79575 19.61 0
4.36112 20.0161 0
4.79646 20.0118 0
4.79575 19.61 0
5.23107 19.6073 0
4.79646 20.0118 0
5.23131 20.0079 0
0.864168 20.4095 0
1.30061 20.4111 0
0.867586 20.8051 0
1.30266 20.807 0
1.30061 20.4111 0
1.73674 20.4137 0
1.30266 20.807 0
1.73953 20.8074 0
1.30266 20.807 0
1.73953 20.8074 0
1.30714 21.2 0
1.74286 21.2 0
3.92407 20.4144 0
4.36052 20.4134 0
3.9228 20.8076 0
4.35922 20.808 0
3.9228 20.8076 0
4.35922 20.808 0
[...]
POINT_DATA 29820
SCALARS solution double 1
LOOKUP_TABLE default
8.79174 8.6047 8.73364 8.55374 8.6047 8.24901 8.55374 8.25166 2.26593 2.25266 2.26309 2.24539 2.27046 2.26593 2.27358 2.26309 2.27268 2.27538 2.27046 2.26593 2.27538 2.26603 2.26593 2.25266 8.24901 7.84047 8.25166 7.88937 7.84047 7.41384 7.88937 7.49849 2.23135 2.20352 2.22137 2.19226 2.25266 2.23135 2.24539 2.22137 2.26603 2.2463 2.25266 2.23135 2.2463 2.21859 2.23135 2.20352 7.41384 6.98576 7.49849 7.09757 6.98576 6.56573 7.09757 6.69812 2.17071 2.13417 2.15921 2.12318 2.20352 2.17071 2.19226 2.15921 2.21859 2.18503 2.20352 2.17071 6.56573 6.15934 6.69812 6.30731 6.15934 5.76974 6.30731 5.92948 2.09485 2.05342 2.08488 2.04485 2.13417 2.09485 2.12318 2.08488 5.76974 5.39853 5.92948 5.56712 5.39853 5.04631 5.56712 5.22154 2.01036 1.966 2.00348 1.96111 2.05342 2.01036 2.04485 2.00348 5.04631 4.71292 5.22154 4.89354 4.71292 4.39702 4.89354 4.58447 1.92068 1.87477 1.91809 1.87485 1.966 1.92068 1.96111 1.91809 3.17586 3.01872 3.24784 2.98385 3.37686 3.17586 3.46647 3.24784 3.29922 3.1061 3.37686 3.17586 3.1061 2.96675 3.17586 3.01872 4.39702 4.09486 4.58447 4.30104 4.09486 3.8042 4.30104 4.07617 2.77783 2.80083 2.80094 2.85973 2.80209 2.80869 2.77783 2.80083 2.81376 2.82296 2.80869 2.80083 2.82296 2.98385 2.80083 2.85973 1.65346 1.64148 1.64671 1.63423 1.67051 1.64773 1.65346 1.64148 1.64238 1.63577 1.64773 1.64148 1.63577 1.62731 1.64148 1.63423 1.82883 1.78364 1.83196 1.79015 1.87477 1.82883 1.87485 1.83196 1.87325 1.82298 1.87477 1.82883 1.82298 1.77294 1.82883 1.78364 1.70239 1.72383 1.67385 1.67051 1.70239 1.67385 1.68081 1.652 1.74156 1.70239 1.71344 1.68081 1.74156 1.77294 1.70239 1.72383 2.81376 2.80869 2.84507 2.84361 2.80209 2.84124 2.80869 2.84361 2.84124 2.88287 2.84361 2.88584 1.63628 1.62672 1.63577 1.62731 1.64407 1.63628 1.64238 1.63577 1.64218 1.6317 1.63628 1.62672 2.88287 2.9216 2.88584 2.9277 2.9216 2.95391 2.9277 2.96523 1.65251 1.64134 1.64218 1.6317 1.66701 1.65534 1.65251 1.64134 3.53509 3.29922 3.57897 3.37686 3.57897 3.37686 3.64015 3.46647 3.57897 3.64015 3.76777 3.75048 3.53509 3.57897 3.8042 3.76777 2.97721 2.99529 2.95391 2.96523 2.99011 3.01562 2.97721 2.99529 1.68656 1.67444 1.66701 1.65534 1.71287 1.70022 1.68656 1.67444 2.99264 3.02535 2.99011 3.01562 2.98571 3.0249 2.99264 3.02535 1.74751 1.73417 1.71287 1.70022 1.79091 1.77676 1.74751 1.73417 2.98571 2.97061 3.0249 3.0154 2.97061 2.94864 3.0154 2.99818 1.84211 1.82718 1.79091 1.77676 1.89938 1.88377 1.84211 1.82718 2.92093 2.97449 2.94864 2.99818 2.8884 2.94539 2.92093 2.97449 1.96089 1.94473 1.89938 1.88377 2.02503 2.00845 1.96089 1.94473 2.8884 2.85174 2.94539 2.91171 2.85174 2.81151 2.91171 2.87411 2.09056 2.07362 2.02503 2.00845 2.1565 2.13926 2.09056 2.07362 2.81151 2.76811 2.87411 2.83308 2.76811 2.72184 2.83308 2.78898 2.22214 2.2046 2.1565 2.13926 2.28692 2.2691 2.22214 2.2046 2.67294 2.7421 2.72184 2.78898 2.62156 2.69265 2.67294 2.7421 2.35047 2.33235 2.28692 2.2691 2.41247 2.39405 2.35047 2.33235 2.56786 2.64078 2.62156 2.69265 2.51196 2.58663 2.56786 2.64078 2.47273 2.45398 2.41247 2.39405 2.53107 2.51196 2.47273 2.45398 3.93992 3.83082 4.11062 3.96428 4.07617 3.93992 4.21933 4.11062 3.8042 3.76777 4.07617 3.93992 3.76777 3.75048 3.93992 3.83082 3.64015 3.46647 3.71985 3.69733 3.71985 3.69733 3.83082 3.96428 3.64015 3.71985 3.75048 3.83082 1.74156 1.75854 1.77294 1.78364 1.74156 1.71344 1.75854 1.75029 1.75854 1.75029 1.78364 1.79015 2.96675 2.89711 3.01872 2.92831 2.89711 2.80094 2.92831 2.85973 3.01872 2.92831 2.98385 2.85973 2.53107 2.5749 2.51196 2.58663 1.6611 1.65346 1.65413 1.64671 1.67385 1.6611 1.652 1.65413 1.67385 1.67051 1.6611 1.65346 61.6758 61.8378 61.0593 61.137 61.5319 61.6758 60.9757 61.0593 61.4054 61.5319 60.8875 60.9757 61.2913 61.4054 60.8027 60.8875 58.5958 58.6372 57.8455 57.889 58.5182 58.5958 57.7567 57.8455 59.3407 59.4068 58.5182 58.5958 59.4068 59.4482 58.5958 58.6372 60.1943 60.2515 59.4068 59.4482 60.1281 60.1943 59.3407 59.4068 60.8027 60.8875 60.1281 60.1943 60.8875 60.9757 60.1943 60.2515 60.3961 60.471 59.6894 59.781 59.6894 59.781 58.7888 58.9088 59.5973 59.6894 58.6718 58.7888 60.3237 60.3961 59.5973 59.6894 60.3097 60.2666 59.3771 59.2969 61.2531 61.2753 60.3097 60.2666 61.2753 61.2559 60.2666 60.1952 60.2666 60.1952 59.2969 59.1952 58.6718 58.7888 57.495 57.6763 58.7888 58.9088 57.6763 57.8791 61.8378 62.0184 61.137 61.2048 62.0184 62.214 61.2048 61.2531 62.4065 62.5502 61.2753 61.2559 62.214 62.4065 61.2531 61.2753 60.8818 60.9426 60.3961 60.471 60.8314 60.8818 60.3237 60.3961 59.3771 59.2969 58.4485 58.3209 59.2969 59.1952 58.3209 58.1642 58.3209 58.1642 57.3506 56.9943 58.4485 58.3209 57.5859 57.3506 61.0144 61.096 60.5501 60.6325 60.9426 61.0144 60.471 60.5501 61.1885 61.2913 60.7177 60.8027 61.096 61.1885 60.6325 60.7177 60.5501 60.6325 59.8746 59.9639 59.8746 59.9639 59.0344 59.148 59.781 59.8746 58.9088 59.0344 60.471 60.5501 59.781 59.8746 58.4057 58.5182 57.619 57.7567 58.2578 58.4057 57.4251 57.619 59.148 59.2551 58.2578 58.4057 59.2551 59.3407 58.4057 58.5182 60.6325 60.7177 59.9639 60.0514 60.7177 60.8027 60.0514 60.1281 60.0514 60.1281 59.2551 59.3407 59.9639 60.0514 59.148 59.2551 60.3245 60.3097 59.4313 59.3771 60.3153 60.3245 59.46 59.4313 61.137 61.2048 60.3153 60.3245 61.2048 61.2531 60.3245 60.3097 58.9088 59.0344 57.8791 58.0793 59.0344 59.148 58.0793 58.2578 58.0793 58.2578 57.1601 57.4251 59.4661 59.46 58.643 58.6113 58.643 58.6113 57.8879 57.8408 58.6372 58.643 57.889 57.8879 59.4482 59.4661 58.6372 58.643 59.46 59.4313 58.6113 58.5468 59.4313 59.3771 58.5468 58.4485 58.5468 58.4485 57.743 57.5859 58.6113 58.5468 57.8408 57.743 60.2515 60.2893 59.4482 59.4661 60.9757 61.0593 60.2515 60.2893 61.0593 61.137 60.2893 60.3153 60.2893 60.3153 59.4661 59.46 46.921 46.7301 48.6023 48.5522 47.0979 46.921 48.6499 48.6023 49.0851 49.0216 49.6917 49.6705 49.0216 48.9619 49.6705 49.6578 48.9619 48.9029 49.6578 49.6548 48.9029 48.8479 49.6548 49.665 47.2603 47.0979 48.6968 48.6499 47.4076 47.2603 48.7442 48.6968 48.0234 47.9089 49.0216 48.9619 48.1331 48.0234 49.0851 49.0216 48.6499 48.6023 49.8954 50.0122 48.6023 48.5522 50.0122 50.1464 47.7923 47.6723 48.9029 48.8479 47.9089 47.7923 48.9619 48.9029 48.7442 48.6968 49.7358 49.8032 48.6968 48.6499 49.8032 49.8954 48.5522 48.498 50.1464 50.2795 48.498 48.4337 50.2795 50.3797 46.5375 46.3574 48.498 48.4337 46.7301 46.5375 48.5522 48.498 49.2189 49.1497 49.7514 49.7189 49.1497 49.0851 49.7189 49.6917 48.2402 48.1331 49.1497 49.0851 48.3516 48.2402 49.2189 49.1497 47.2997 47.0955 48.3516 48.2402 48.8479 48.7946 49.665 49.6909 48.7946 48.7442 49.6909 49.7358 47.5438 47.4076 48.7946 48.7442 47.6723 47.5438 48.8479 48.7946 195.845 195.777 194.472 194.404 194.472 194.404 192.622 192.554 194.495 194.472 192.644 192.622 195.867 195.845 194.495 194.472 189.806 189.321 191.76 191.264 189.321 188.765 191.264 190.711 191.264 190.711 192.69 192.139 191.76 191.264 193.194 192.69 186.706 186.162 189.321 188.765 187.164 186.706 189.806 189.321 183.666 183.226 187.164 186.706 196.78 195.765 196.669 195.652 196.669 195.652 196.516 195.501 197.339 196.669 197.181 196.516 197.452 196.78 197.339 196.669 187.476 186.995 184.121 183.716 189.993 189.482 187.476 186.995 189.482 188.925 186.995 186.473 192.451 192.376 194.403 194.331 194.403 194.331 195.834 195.765 194.431 194.403 195.859 195.834 192.485 192.451 194.431 194.403 193.682 193.216 192.31 191.843 192.31 191.843 190.46 189.993 192.731 192.31 190.881 190.46 194.103 193.682 192.731 192.31 187.541 187.164 190.211 189.806 187.865 187.541 190.573 190.211 184.257 183.988 187.865 187.541 183.988 183.666 187.541 187.164 197.52 197.497 196.854 196.831 197.497 197.429 196.831 196.764 196.831 196.764 195.845 195.777 196.854 196.831 195.867 195.845 197.52 197.907 197.497 197.884 197.907 198.039 197.884 198.017 197.884 198.017 197.817 197.949 197.497 197.884 197.429 197.817 191.843 191.332 189.993 189.482 193.216 192.704 191.843 191.332 192.704 192.147 191.332 190.775 191.332 190.775 189.482 188.925 193.69 193.134 192.704 192.147 194.202 193.69 193.216 192.704 194.868 194.356 194.202 193.69 194.356 193.799 193.69 193.134 190.134 190.032 186.86 186.697 190.19 190.134 186.968 186.86 192.644 192.622 190.19 190.134 192.622 192.554 190.134 190.032 192.195 191.76 193.649 193.194 192.585 192.195 194.059 193.649 190.573 190.211 192.585 192.195 190.211 189.806 192.195 191.76 196.871 195.859 196.848 195.834 196.848 195.834 196.78 195.765 197.52 196.848 197.452 196.78 197.542 196.871 197.52 196.848 198.039 197.921 198.017 197.899 197.921 197.542 197.899 197.52 197.899 197.52 197.831 197.452 198.017 197.899 197.949 197.831 196.132 196.52 195.756 196.143 196.464 196.851 196.132 196.52 196.851 196.983 196.52 196.652 196.52 196.652 196.143 196.275 195.085 194.059 194.673 193.649 194.673 193.649 194.213 193.194 195.357 194.673 194.89 194.213 195.778 195.085 195.357 194.673 192.247 192.083 194.214 194.055 194.214 194.055 195.652 195.501 194.331 194.214 195.765 195.652 192.376 192.247 194.331 194.214 195.255 195.387 194.743 194.875 194.743 194.875 194.187 194.318 194.356 194.743 193.799 194.187 194.868 195.255 194.356 194.743 194.378 193.705 193.822 193.151 194.89 194.213 194.378 193.705 194.213 193.194 193.705 192.69 193.705 192.69 193.151 192.139 195.756 195.335 195.09 194.669 195.335 194.868 194.669 194.202 194.669 194.202 193.682 193.216 195.09 194.669 194.103 193.682 190.46 189.993 187.857 187.476 187.857 187.476 184.407 184.121 188.195 187.857 184.543 184.407 190.881 190.46 188.195 187.857 196.143 196.275 195.722 195.854 195.722 195.854 195.255 195.387 195.335 195.722 194.868 195.255 195.756 196.143 195.335 195.722 197.317 197.159 196.651 196.493 196.651 196.493 195.664 195.506 196.764 196.651 195.777 195.664 197.429 197.317 196.764 196.651 196.155 195.447 195.778 195.085 196.486 195.764 196.155 195.447 195.764 194.695 195.447 194.395 195.447 194.395 195.085 194.059 194.875 194.758 194.318 194.201 195.387 195.269 194.875 194.758 195.269 194.89 194.758 194.378 194.758 194.378 194.201 193.822 197.718 197.339 197.56 197.181 197.836 197.718 197.678 197.56 197.949 197.831 197.836 197.718 197.831 197.452 197.718 197.339 197.704 197.836 197.546 197.678 197.317 197.704 197.159 197.546 197.429 197.817 197.317 197.704 197.817 197.949 197.704 197.836 195.854 195.736 195.387 195.269 196.275 196.158 195.854 195.736 196.158 195.778 195.736 195.357 195.736 195.357 195.269 194.89 196.865 196.486 196.534 196.155 196.534 196.155 196.158 195.778 196.652 196.534 196.275 196.158 196.983 196.865 196.652 196.534 195.466 195.09 194.479 194.103 195.797 195.466 194.81 194.479 196.464 196.132 195.797 195.466 196.132 195.756 195.466 195.09 196.493 196.29 195.506 195.303 197.159 196.956 196.493 196.29 196.956 196.707 196.29 196.042 196.29 196.042 195.303 195.055 197.159 197.546 196.956 197.343 197.546 197.678 197.343 197.475 197.343 197.475 197.095 197.227 196.956 197.343 196.707 197.095 193.107 192.731 191.258 190.881 193.438 193.107 191.589 191.258 194.81 194.479 193.438 193.107 194.479 194.103 193.107 192.731 197.357 196.978 197.109 196.73 197.475 197.357 197.227 197.109 197.678 197.56 197.475 197.357 197.56 197.181 197.357 196.978 196.589 196.464 195.924 195.797 195.924 195.797 194.937 194.81 196.042 195.924 195.055 194.937 196.707 196.589 196.042 195.924 195.664 195.506 194.29 194.133 194.29 194.133 192.438 192.277 194.404 194.29 192.554 192.438 195.777 195.664 194.404 194.29 197.095 197.227 196.977 197.109 196.977 197.109 196.851 196.983 196.589 196.977 196.464 196.851 196.707 197.095 196.589 196.977 197.227 197.109 197.109 196.991 197.109 196.73 196.991 196.61 196.991 196.61 196.865 196.486 197.109 196.991 196.983 196.865 193.869 193.647 195.321 195.105 194.055 193.869 195.501 195.321 192.083 191.883 194.055 193.869 191.883 191.648 193.869 193.647 196.516 195.501 196.323 195.321 196.323 195.321 196.091 195.105 196.978 196.323 196.73 196.091 197.181 196.516 196.978 196.323 192.438 192.277 189.856 189.63 189.856 189.63 186.439 186.059 190.032 189.856 186.697 186.439 192.554 192.438 190.032 189.856 191.166 190.884 193.206 192.913 190.884 190.573 192.913 192.585 192.913 192.585 194.395 194.059 193.206 192.913 194.695 194.395 194.937 194.81 193.566 193.438 193.566 193.438 191.72 191.589 193.687 193.566 191.843 191.72 195.055 194.937 193.687 193.566 193.932 193.687 192.082 191.843 194.133 193.932 192.277 192.082 195.506 195.303 194.133 193.932 195.303 195.055 193.932 193.687 186.437 186.366 189.882 189.836 186.366 186.256 189.836 189.745 189.836 189.745 192.451 192.376 189.882 189.836 192.485 192.451 196.73 196.091 196.61 195.934 196.091 195.105 195.934 194.904 195.934 194.904 195.764 194.695 196.61 195.934 196.486 195.764 191.411 191.166 193.436 193.206 193.436 193.206 194.904 194.695 193.647 193.436 195.105 194.904 191.648 191.411 193.647 193.436 189.405 189.17 192.083 191.883 185.841 185.546 189.405 189.17 185.546 185.251 189.17 188.898 189.17 188.898 191.883 191.648 189.745 189.601 192.376 192.247 186.256 186.084 189.745 189.601 186.084 185.841 189.601 189.405 189.601 189.405 192.247 192.083 191.72 191.589 188.606 188.401 188.606 188.401 184.251 183.935 188.798 188.606 184.552 184.251 191.843 191.72 188.798 188.606 184.552 184.251 180.26 179.906 184.251 183.935 179.906 179.558 192.082 191.843 189.238 188.798 192.277 192.082 189.63 189.238 188.407 188.147 191.166 190.884 184.726 184.498 188.407 188.147 184.498 184.257 188.147 187.865 188.147 187.865 190.884 190.573 191.589 191.258 188.401 188.321 191.258 190.881 188.321 188.195 185.251 185.001 188.898 188.667 185.001 184.726 188.667 188.407 188.667 188.407 191.411 191.166 188.898 188.667 191.648 191.411 48.4337 47.6672 50.3797 51.9403 46.3574 44.4708 48.4337 47.6672 59.1952 57.509 58.1642 55.7841 61.2559 61.3506 60.1952 59.0591 60.1952 59.0591 59.1952 57.509 62.5502 63.179 61.2559 61.3506 1.72383 4.83699 1.67051 1.64773 6.72682 3.24784 2.82296 2.98385 2.97359 2.9879 2.94539 2.96056 2.9879 3.00092 2.96056 2.97449 3.00092 3.01249 2.97449 2.98707 3.01249 3.02252 2.98707 2.99818 2.03277 2.02503 2.00029 1.99272 2.00029 1.99272 1.96826 1.96089 2.94146 2.91171 2.92381 2.89337 2.92381 2.89337 2.90521 2.87411 2.97359 2.94539 2.95807 2.92908 2.95807 2.92908 2.94146 2.91171 2.0986 2.09056 2.06559 2.0577 2.06559 2.0577 2.03277 2.02503 2.16478 2.1565 2.1317 2.12353 2.1317 2.12353 2.0986 2.09056 2.8654 2.83308 2.84428 2.81139 2.84428 2.81139 2.82242 2.78898 2.90521 2.87411 2.88572 2.854 2.88572 2.854 2.8654 2.83308 2.23063 2.22214 2.19779 2.1894 2.19779 2.1894 2.16478 2.1565 2.29561 2.28692 2.26326 2.25466 2.26326 2.25466 2.23063 2.22214 2.72811 2.75266 2.69265 2.71769 2.75266 2.77658 2.71769 2.7421 2.77658 2.79984 2.7421 2.76587 2.79984 2.82242 2.76587 2.78898 2.35934 2.35047 2.32766 2.31887 2.32766 2.31887 2.29561 2.28692 2.42154 2.41247 2.39065 2.38168 2.39065 2.38168 2.35934 2.35047 2.62392 2.65083 2.58663 2.61398 2.65083 2.67718 2.61398 2.64078 2.67718 2.70294 2.64078 2.66701 2.70294 2.72811 2.66701 2.69265 2.48198 2.47273 2.45199 2.44283 2.45199 2.44283 2.42154 2.41247 2.54052 2.53107 2.5115 2.50215 2.5115 2.50215 2.48198 2.47273 150.385 144.432 148.558 142.749 144.432 137.608 142.749 136.091 150.385 148.558 155.583 153.626 155.583 153.626 160.123 158.05 160.123 158.05 164.088 161.912 164.088 161.912 167.551 165.282 173.212 170.574 170.784 168.221 170.574 167.551 168.221 165.282 177.516 175.512 174.961 173.017 175.512 173.212 173.017 170.784 177.516 174.961 179.261 176.651 179.261 176.651 180.776 178.117 180.776 178.117 182.091 179.387 182.091 179.387 183.227 180.483 183.227 180.483 184.207 181.427 184.207 181.427 185.047 182.234 185.047 182.234 185.764 182.92 185.764 182.92 186.369 183.498 187.29 186.875 184.371 183.979 186.875 186.369 183.979 183.498 187.88 187.623 184.919 184.682 187.623 187.29 184.682 184.371 188.184 188.066 185.184 185.085 188.066 187.88 185.085 184.919 188.228 188.238 185.19 185.219 188.238 188.184 185.219 185.184 188.018 188.155 184.941 185.098 188.155 188.228 185.098 185.19 187.543 187.815 184.424 184.718 187.815 188.018 184.718 184.941 187.543 184.424 187.197 184.054 187.197 184.054 186.773 183.603 186.773 183.603 186.263 183.064 186.263 183.064 185.658 182.426 185.658 182.426 184.949 181.679 184.949 181.679 184.122 180.81 3.0439 3.04372 3.0249 3.02633 3.04372 3.04103 3.02633 3.02535 3.04909 3.03917 3.03568 3.02764 3.04103 3.03568 3.02535 3.0218 3.03568 3.02764 3.0218 3.01562 1.80185 1.7968 1.77867 1.77382 1.7968 1.79091 1.77382 1.76815 1.77867 1.77382 1.75773 1.75301 1.77382 1.76815 1.75301 1.74751 3.03728 3.0154 3.03083 3.00767 3.03083 3.00767 3.02252 2.99818 3.0439 3.0249 3.04169 3.0212 3.04169 3.0212 3.03728 3.0154 1.84851 1.84211 1.82178 1.81564 1.8271 1.82178 1.80185 1.7968 1.82178 1.81564 1.7968 1.79091 1.9063 1.89938 1.87678 1.87012 1.87678 1.87012 1.84851 1.84211 1.96826 1.96089 1.93688 1.92972 1.93688 1.92972 1.9063 1.89938 61.5319 61.7005 61.6017 61.782 61.6017 61.782 61.6758 61.8707 61.6758 61.8707 61.7544 61.9678 61.7544 61.9678 61.8378 62.0747 61.2913 61.4311 61.3469 61.4914 61.3469 61.4914 61.4054 61.556 61.4054 61.556 61.4669 61.6255 61.4669 61.6255 61.5319 61.7005 61.8378 62.0747 61.9258 62.1931 61.9258 62.1931 62.0184 62.3251 62.0184 62.3251 62.1151 62.4732 62.1151 62.4732 62.214 62.6395 62.4065 63.0285 62.4875 63.2359 62.4875 63.2359 62.5502 63.4457 62.214 62.6395 62.3129 62.8256 62.3129 62.8256 62.4065 63.0285 60.8314 60.9873 60.8554 61.0037 60.8554 61.0037 60.8818 61.0243 60.8818 61.0243 60.9109 61.049 60.9109 61.049 60.9426 61.0776 60.9426 61.0776 60.9773 61.1099 60.9773 61.1099 61.0144 61.1456 61.0144 61.1456 61.054 61.1847 61.054 61.1847 61.096 61.2271 61.096 61.2271 61.141 61.2729 61.141 61.2729 61.1885 61.3221 61.1885 61.3221 61.2386 61.3747 61.2386 61.3747 61.2913 61.4311 49.6705 49.663 49.8464 49.8463 49.663 49.6578 49.8463 49.849 49.6917 49.6802 49.8533 49.8488 49.6802 49.6705 49.8488 49.8464 49.6548 49.6581 49.8643 49.8781 49.6581 49.665 49.8781 49.8967 49.6578 49.6548 49.849 49.8548 49.6548 49.6548 49.8548 49.8643 50.0122 50.078 50.5353 50.6717 50.078 50.1464 50.6717 50.8268 49.8954 49.951 50.3142 50.4167 49.951 50.0122 50.4167 50.5353 49.8032 49.8462 50.1509 50.2262 49.8462 49.8954 50.2262 50.3142 49.7358 49.7665 50.0332 50.0871 49.7665 49.8032 50.0871 50.1509 50.1464 50.215 50.8268 51.0001 50.215 50.2795 51.0001 51.1865 50.2795 50.3365 51.1865 51.3744 50.3365 50.3797 51.3744 51.5425 49.7514 49.7345 49.8831 49.8745 49.7345 49.7189 49.8745 49.8664 49.7189 49.7046 49.8664 49.8592 49.7046 49.6917 49.8592 49.8533 49.6909 49.7108 49.951 49.9882 49.7108 49.7358 49.9882 50.0332 49.665 49.6758 49.8967 49.9208 49.6758 49.6909 49.9208 49.951 154.578 148.367 154.467 148.265 148.367 141.259 148.265 141.164 154.467 148.265 154.344 148.151 148.265 141.164 148.151 141.059 154.74 148.512 154.665 148.445 148.512 141.389 148.445 141.329 154.665 148.445 154.578 148.367 148.445 141.329 148.367 141.259 148.206 147.996 140.761 140.56 147.996 147.776 140.56 140.348 148.591 148.404 141.138 140.955 148.404 148.206 140.955 140.761 157.705 151.489 157.493 151.267 151.489 144.373 151.267 144.142 157.493 151.267 157.269 151.034 151.267 144.142 151.034 143.901 158.062 151.869 157.889 151.684 151.869 144.777 151.684 144.58 157.889 151.684 157.705 151.489 151.684 144.58 151.489 144.373 144.987 144.939 137.542 137.491 145.045 145.021 137.616 137.584 145.021 144.987 137.584 137.542 157.206 157.142 151.504 151.449 157.142 157.066 151.449 151.383 151.504 151.449 144.987 144.939 151.449 151.383 144.939 144.88 154.793 148.526 154.786 148.527 148.526 141.373 148.527 141.384 154.786 148.527 154.768 148.519 148.527 141.384 148.519 141.385 154.826 148.531 154.814 148.533 148.531 141.349 148.533 141.366 154.814 148.533 154.793 148.526 148.533 141.366 148.526 141.373 154.799 148.56 154.775 148.541 148.56 141.43 148.541 141.415 154.775 148.541 154.74 148.512 148.541 141.415 148.512 141.389 154.768 148.519 154.789 148.545 148.519 141.385 148.545 141.413 154.789 148.545 154.799 148.56 148.545 141.413 148.56 141.43 145.074 