# vtk DataFile Version 3.0
#This file was generated by the deal.II library on 2020/5/26 at 18:52:24
ASCII
DATASET UNSTRUCTURED_GRID

POINTS 29808 double
0 0 0
0.466667 0 0
0 0.4 0
0.45119 0.4 0
0.466667 0 0
0.933333 0 0
0.45119 0.4 0
0.902381 0.4 0
0.483333 23.6 0
0.966667 23.6 0
0.466667 24 0
0.933333 24 0
0 23.6 0
0.483333 23.6 0
0 24 0
0.466667 24 0
0 23.2 0
0.5 23.2 0
0 23.6 0
0.483333 23.6 0
0.933333 0 0
1.4 0 0
0.902381 0.4 0
1.35357 0.4 0
1.4 0 0
1.86667 0 0
1.35357 0.4 0
1.80476 0.4 0
1.45 23.6 0
1.93333 23.6 0
1.4 24 0
1.86667 24 0
0.966667 23.6 0
1.45 23.6 0
0.933333 24 0
1.4 24 0
1.86667 0 0
2.33333 0 0
1.80476 0.4 0
2.25595 0.4 0
2.33333 0 0
2.8 0 0
2.25595 0.4 0
2.70714 0.4 0
2.41667 23.6 0
2.9 23.6 0
2.33333 24 0
2.8 24 0
1.93333 23.6 0
2.41667 23.6 0
1.86667 24 0
2.33333 24 0
2.8 0 0
3.26667 0 0
2.70714 0.4 0
3.15833 0.4 0
3.26667 0 0
3.73333 0 0
3.15833 0.4 0
3.60952 0.4 0
3.38333 23.6 0
3.86667 23.6 0
3.26667 24 0
3.73333 24 0
2.9 23.6 0
3.38333 23.6 0
2.8 24 0
3.26667 24 0
3.73333 0 0
4.2 0 0
3.60952 0.4 0
4.06071 0.400002 0
4.2 0 0
4.66667 0 0
4.06071 0.400002 0
4.51187 0.400017 0
4.35 23.6 0
4.83333 23.6 0
4.2 24 0
4.66667 24 0
3.86667 23.6 0
4.35 23.6 0
3.73333 24 0
4.2 24 0
4.66667 0 0
5.13333 0 0
4.51187 0.400017 0
4.96274 0.40018 0
5.13333 0 0
5.6 0 0
4.96274 0.40018 0
5.412 0.401188 0
5.31667 23.6 0
5.8 23.6 0
5.13333 24 0
5.6 24 0
4.83333 23.6 0
5.31667 23.6 0
4.66667 24 0
5.13333 24 0
7.7656 0.408656 0
8.08564 0.489853 0
7.625 0.8 0
8 0.8 0
7.37297 0.372717 0
7.7656 0.408656 0
7.25 0.8 0
7.625 0.8 0
7.46667 0 0
7.93333 0 0
7.37297 0.372717 0
7.7656 0.408656 0
7.93333 0 0
8.4 0 0
7.7656 0.408656 0
8.08564 0.489853 0
5.6 0 0
6.06667 0 0
5.412 0.401188 0
5.851 0.407784 0
6.06667 0 0
6.53333 0 0
5.851 0.407784 0
6.22598 0.450874 0
8.4 1.5 0
8.20238 1.40048 0
8.4 1 0
8.21539 0.946782 0
8.4 2 0
8.20022 1.8875 0
8.4 1.5 0
8.20238 1.40048 0
8 1.77391 0
8 1.28696 0
8.20022 1.8875 0
8.20238 1.40048 0
8 1.28696 0
8 0.8 0
8.20238 1.40048 0
8.21539 0.946782 0
8.21496 23.0543 0
8.2025 22.599 0
8.4 23 0
8.4 22.5 0
8 23.2 0
8 22.713 0
8.21496 23.0543 0
8.2025 22.599 0
8 22.2261 0
8.20035 22.1121 0
8 22.713 0
8.2025 22.599 0
8.20035 22.1121 0
8.4 22 0
8.2025 22.599 0
8.4 22.5 0
6.28333 23.6 0
6.76667 23.6 0
6.06667 24 0
6.53333 24 0
5.8 23.6 0
6.28333 23.6 0
5.6 24 0
6.06667 24 0
7.69489 23.5856 0
7.5 23.2 0
8.06391 23.5091 0
8 23.2 0
7.69489 23.5856 0
8.06391 23.5091 0
7.93333 24 0
8.4 24 0
7.23333 23.6 0
7.69489 23.5856 0
7.46667 24 0
7.93333 24 0
7.23333 23.6 0
7 23.2 0
7.69489 23.5856 0
7.5 23.2 0
8.4 2 0
8.4 2.5 0
8.20022 1.8875 0
8.20003 2.3805 0
8.4 2.5 0
8.4 3 0
8.20003 2.3805 0
8.2 2.87391 0
8.20005 21.6194 0
8.4 21.5 0
8.20035 22.1121 0
8.4 22 0
8.2 21.1261 0
8.4 21 0
8.20005 21.6194 0
8.4 21.5 0
8.4 3 0
8.4 3.5 0
8.2 2.87391 0
8.2 3.36739 0
8.4 3.5 0
8.4 4 0
8.2 3.36739 0
8.2 3.86087 0
8.2 20.6326 0
8.4 20.5 0
8.2 21.1261 0
8.4 21 0
8.2 20.1391 0
8.4 20 0
8.2 20.6326 0
8.4 20.5 0
7 0 0
7.46667 0 0
7.00198 0.331094 0
7.37297 0.372717 0
7.00198 0.331094 0
7.37297 0.372717 0
6.94022 0.576588 0
7.25 0.8 0
7.00198 0.331094 0
6.94022 0.576588 0
6.69426 0.367442 0
6.75692 0.535711 0
7 0 0
7.00198 0.331094 0
6.53333 0 0
6.69426 0.367442 0
8.4 4.5 0
8.2 4.35435 0
8.4 4 0
8.2 3.86087 0
8.4 5 0
8.2 4.84783 0
8.4 4.5 0
8.2 4.35435 0
8.2 19.6457 0
8.4 19.5 0
8.2 20.1391 0
8.4 20 0
8.2 19.1522 0
8.4 19 0
8.2 19.6457 0
8.4 19.5 0
8.4 5.5 0
8.2 5.3413 0
8.4 5 0
8.2 4.84783 0
8.4 6 0
8.2 5.83478 0
8.4 5.5 0
8.2 5.3413 0
8.2 18.6587 0
8.4 18.5 0
8.2 19.1522 0
8.4 19 0
8.2 18.1652 0
8.4 18 0
8.2 18.6587 0
8.4 18.5 0
8.4 6 0
8.4 6.5 0
8.2 5.83478 0
8.2 6.32826 0
8.4 6.5 0
8.4 7 0
8.2 6.32826 0
8.2 6.82174 0
8.2 17.6717 0
8.4 17.5 0
8.2 18.1652 0
8.4 18 0
8.2 17.1783 0
8.4 17 0
8.2 17.6717 0
8.4 17.5 0
8.4 7.5 0
8.2 7.31522 0
8.4 7 0
8.2 6.82174 0
8.4 8 0
8.2 7.8087 0
8.4 7.5 0
8.2 7.31522 0
8.2 16.6848 0
8.4 16.5 0
8.2 17.1783 0
8.4 17 0
8.2 16.1913 0
8.4 16 0
8.2 16.6848 0
8.4 16.5 0
8.4 8 0
8.4 8.5 0
8.2 7.8087 0
8.2 8.30217 0
8.4 8.5 0
8.4 9 0
8.2 8.30217 0
8.2 8.79565 0
8.2 15.6978 0
8.4 15.5 0
8.2 16.1913 0
8.4 16 0
8.2 15.2043 0
8.4 15 0
8.2 15.6978 0
8.4 15.5 0
8.4 9 0
8.4 9.5 0
8.2 8.79565 0
8.2 9.28913 0
8.4 9.5 0
8.4 10 0
8.2 9.28913 0
8.2 9.78261 0
8.2 14.7109 0
8.4 14.5 0
8.2 15.2043 0
8.4 15 0
8.2 14.2174 0
8.4 14 0
8.2 14.7109 0
8.4 14.5 0
8.4 10.5 0
8.2 10.2761 0
8.4 10 0
8.2 9.78261 0
8.4 11 0
8.2 10.7696 0
8.4 10.5 0
8.2 10.2761 0
8.2 13.7239 0
8.4 13.5 0
8.2 14.2174 0
8.4 14 0
8.2 13.2304 0
8.4 13 0
8.2 13.7239 0
8.4 13.5 0
8.4 11.5 0
8.2 11.263 0
8.4 11 0
8.2 10.7696 0
8.4 12 0
8.2 11.7565 0
8.4 11.5 0
8.2 11.263 0
8.2 12.737 0
8.4 12.5 0
8.2 13.2304 0
8.4 13 0
8.2 12.2435 0
8.4 12 0
8.2 12.737 0
8.4 12.5 0
6.53333 0 0
6.69426 0.367442 0
6.22598 0.450874 0
6.47056 0.554541 0
6.69426 0.367442 0
6.75692 0.535711 0
6.47056 0.554541 0
6.65423 0.648139 0
6.94022 0.576588 0
7.25 0.8 0
6.82768 0.687981 0
6.875 0.8 0
6.94022 0.576588 0
6.82768 0.687981 0
6.75692 0.535711 0
6.65423 0.648139 0
7.23333 23.6 0
7 23.7333 0
7 23.2 0
6.76667 23.6 0
7.23333 23.6 0
7.46667 24 0
7 23.7333 0
7 24 0
7 23.7333 0
7 24 0
6.76667 23.6 0
6.53333 24 0
8.4 0 0
8.4 0.5 0
8.08564 0.489853 0
8.24539 0.628305 0
8.4 0.5 0
8.4 1 0
8.24539 0.628305 0
8.21539 0.946782 0
8.08564 0.489853 0
8.24539 0.628305 0
8 0.8 0
8.21539 0.946782 0
8.2 12.2435 0
8.13333 12 0
8.4 12 0
8.2 11.7565 0
8.2409 23.3709 0
8.21496 23.0543 0
8.4 23.5 0
8.4 23 0
8.06391 23.5091 0
8.2409 23.3709 0
8.4 24 0
8.4 23.5 0
8.06391 23.5091 0
8 23.2 0
8.2409 23.3709 0
8.21496 23.0543 0
3.92285 19.2089 0
4.35873 19.2071 0
3.92402 19.6155 0
4.36024 19.6131 0
3.48654 19.2104 0
3.92285 19.2089 0
3.48709 19.6173 0
3.92402 19.6155 0
3.04979 19.2095 0
3.48654 19.2104 0
3.04963 19.6194 0
3.48709 19.6173 0
2.61306 19.209 0
3.04979 19.2095 0
2.61199 19.618 0
3.04963 19.6194 0
2.61227 20.4138 0
3.04975 20.4138 0
2.6132 20.8075 0
3.04985 20.8074 0
3.04975 20.4138 0
3.48707 20.4145 0
3.04985 20.8074 0
3.4864 20.8076 0
3.04974 20.0186 0
3.48724 20.0176 0
3.04975 20.4138 0
3.48707 20.4145 0
2.61181 20.0173 0
3.04974 20.0186 0
2.61227 20.4138 0
3.04975 20.4138 0
2.61199 19.618 0
3.04963 19.6194 0
2.61181 20.0173 0
3.04974 20.0186 0
3.04963 19.6194 0
3.48709 19.6173 0
3.04974 20.0186 0
3.48724 20.0176 0
0.432966 19.604 0
0.866169 19.6083 0
0.432331 20.0047 0
0.865158 20.0094 0
0.432331 20.0047 0
0.865158 20.0094 0
0.431771 20.4049 0
0.864168 20.4095 0
0 20 0
0.432331 20.0047 0
0 20.4 0
0.431771 20.4049 0
0 19.6 0
0.432966 19.604 0
0 20 0
0.432331 20.0047 0
5.23131 20.0079 0
5.66598 20.0043 0
5.23131 20.4073 0
5.66612 20.4043 0
5.23107 19.6073 0
5.66553 19.6034 0
5.23131 20.0079 0
5.66598 20.0043 0
5.66553 19.6034 0
6.1 19.6 0
5.66598 20.0043 0
6.1 20 0
5.66598 20.0043 0
6.1 20 0
5.66612 20.4043 0
6.1 20.4 0
0 20.4 0
0.431771 20.4049 0
0 20.8 0
0.433758 20.8025 0
0.431771 20.4049 0
0.864168 20.4095 0
0.433758 20.8025 0
0.867586 20.8051 0
4.35873 19.2071 0
4.79445 19.2057 0
4.36024 19.6131 0
4.79575 19.61 0
4.79445 19.2057 0
5.22993 19.2041 0
4.79575 19.61 0
5.23107 19.6073 0
5.66501 19.202 0
6.1 19.2 0
5.66553 19.6034 0
6.1 19.6 0
5.22993 19.2041 0
5.66501 19.202 0
5.23107 19.6073 0
5.66553 19.6034 0
0.434142 19.2024 0
0.868611 19.2046 0
0.432966 19.604 0
0.866169 19.6083 0
0 19.2 0
0.434142 19.2024 0
0 19.6 0
0.432966 19.604 0
5.23131 20.4073 0
5.66612 20.4043 0
5.23046 20.8047 0
5.66527 20.8023 0
5.66612 20.4043 0
6.1 20.4 0
5.66527 20.8023 0
6.1 20.8 0
1.30395 19.2062 0
1.73965 19.2079 0
1.30084 19.6116 0
1.73679 19.6143 0
0.868611 19.2046 0
1.30395 19.2062 0
0.866169 19.6083 0
1.30084 19.6116 0
2.17624 19.2085 0
2.61306 19.209 0
2.17407 19.6159 0
2.61199 19.618 0
1.73965 19.2079 0
2.17624 19.2085 0
1.73679 19.6143 0
2.17407 19.6159 0
1.30084 19.6116 0
1.73679 19.6143 0
1.30041 20.0122 0
1.73639 20.0151 0
1.30041 20.0122 0
1.73639 20.0151 0
1.30061 20.4111 0
1.73674 20.4137 0
0.865158 20.0094 0
1.30041 20.0122 0
0.864168 20.4095 0
1.30061 20.4111 0
0.866169 19.6083 0
1.30084 19.6116 0
0.865158 20.0094 0
1.30041 20.0122 0
1.73674 20.4137 0
2.1748 20.413 0
1.73953 20.8074 0
2.17646 20.8072 0
2.1748 20.413 0
2.61227 20.4138 0
2.17646 20.8072 0
2.6132 20.8075 0
1.73679 19.6143 0
2.17407 19.6159 0
1.73639 20.0151 0
2.17416 20.0157 0
2.17407 19.6159 0
2.61199 19.618 0
2.17416 20.0157 0
2.61181 20.0173 0
2.17416 20.0157 0
2.61181 20.0173 0
2.1748 20.413 0
2.61227 20.4138 0
1.73639 20.0151 0
2.17416 20.0157 0
1.73674 20.4137 0
2.1748 20.413 0
4.79646 20.0118 0
5.23131 20.0079 0
4.79621 20.4106 0
5.23131 20.4073 0
4.36112 20.0161 0
4.79646 20.0118 0
4.36052 20.4134 0
4.79621 20.4106 0
4.36024 19.6131 0
4.79575 19.61 0
4.36112 20.0161 0
4.79646 20.0118 0
4.79575 19.61 0
5.23107 19.6073 0
4.79646 20.0118 0
5.23131 20.0079 0
0.864168 20.4095 0
1.30061 20.4111 0
0.867586 20.8051 0
1.30266 20.807 0
1.30061 20.4111 0
1.73674 20.4137 0
1.30266 20.807 0
1.73953 20.8074 0
3.92407 20.4144 0
4.36052 20.4134 0
3.9228 20.8076 0
4.35922 20.808 0
3.48707 20.4145 0
3.92407 20.4144 0
3.4864 20.8076 0
3.9228 20.8076 0
4.36052 20.4134 0
4.79621 20.4106 0
4.35922 20.808 0
4.79509 20.8066 0
4.79621 20.4106 0
5.23131 20.4073 0
4.79509 20.8066 0
5.23046 20.8047 0
3.48724 20.0176 0
3.92475 20.0184 0
3.48707 20.4145 0
3.92407 20.4144 0
3.48709 19.6173 0
3.92402 19.6155 0
3.48724 20.0176 0
3.92475 20.0184 0
3.92402 19.6155 0
4.36024 19.6131 0
3.92475 20.0184 0
4.36112 20.0161 0
3.92475 20.0184 0
4.36112 20.0161 0
3.92407 20.4144 0
4.36052 20.4134 0
4.79286 2.09877 0
5.22857 2.09877 0
4.79286 2.59807 0
5.22857 2.59812 0
4.35714 2.0988 0
4.79286 2.09877 0
4.35714 2.59847 0
4.79286 2.59807 0
0.871429 2.60262 0
1.30714 2.60292 0
0.871429 3.10151 0
1.30714 3.10179 0
1.30714 2.60292 0
1.74286 2.60354 0
1.30714 3.10179 0
1.74286 3.10214 0
1.74286 2.60354 0
2.17857 2.6027 0
1.74286 3.10214 0
2.17857 3.10173 0
2.17857 2.6027 0
2.61429 2.60225 0
2.17857 3.10173 0
2.61429 3.10135 0
3.92143 2.09935 0
4.35714 2.0988 0
3.92143 2.59917 0
4.35714 2.59847 0
3.48571 2.09988 0
3.92143 2.09935 0
3.48571 2.59986 0
[...]
POINT_DATA 29808
SCALARS solution double 1
LOOKUP_TABLE default
8.92048 8.69437 8.89666 8.66804 8.69437 8.3082 8.66804 8.32786 2.26218 2.2489 2.25943 2.24178 2.26674 2.26218 2.26993 2.25943 2.26881 2.27148 2.26674 2.26218 8.3082 7.87892 8.32786 7.93967 7.87892 7.43857 7.93967 7.53149 2.22766 2.19998 2.21787 2.18893 2.2489 2.22766 2.24178 2.21787 7.43857 7.00147 7.53149 7.11904 7.00147 6.57553 7.11904 6.71192 2.16737 2.13108 2.15609 2.1203 2.19998 2.16737 2.18893 2.15609 6.57553 6.16528 6.71192 6.31602 6.16528 5.77316 6.31602 5.93481 2.09203 2.05089 2.08227 2.04252 2.13108 2.09203 2.1203 2.08227 5.77316 5.40031 5.93481 5.57022 5.40031 5.04705 5.57022 5.22317 2.00812 1.96407 2.00143 1.95936 2.05089 2.00812 2.04252 2.00143 5.04705 4.71299 5.22317 4.89422 4.71299 4.39669 4.89422 4.58453 1.91906 1.87346 1.91663 1.87368 1.96407 1.91906 1.95936 1.91663 3.17531 3.01819 3.24727 2.98333 3.37628 3.17531 3.46583 3.24727 3.29864 3.10556 3.37628 3.17531 3.10556 2.96623 3.17531 3.01819 4.39669 4.09433 4.58453 4.30072 4.09433 3.80361 4.30072 4.0758 2.77733 2.80033 2.80045 2.85923 2.80159 2.80813 2.77733 2.80033 2.81332 2.82245 2.80813 2.80033 2.82245 2.98333 2.80033 2.85923 1.65325 1.64114 1.64653 1.63391 1.67029 1.64739 1.65325 1.64114 1.64181 1.63521 1.64739 1.64114 1.63521 1.62679 1.64114 1.63391 1.82783 1.78292 1.83106 1.78951 1.87346 1.82783 1.87368 1.83106 1.70212 1.72339 1.67369 1.67029 1.70212 1.67369 1.68073 1.65204 1.74109 1.70212 1.71322 1.68073 1.74109 1.77221 1.70212 1.72339 2.80159 2.84071 2.80813 2.8431 2.84071 2.88232 2.8431 2.8853 1.63544 1.62593 1.63521 1.62679 1.64102 1.63061 1.63544 1.62593 2.88232 2.92099 2.8853 2.92712 2.92099 2.95324 2.92712 2.9646 1.65102 1.63992 1.64102 1.63061 1.66521 1.65361 1.65102 1.63992 3.53449 3.29864 3.57837 3.37628 3.57837 3.37628 3.63953 3.46583 3.57837 3.63953 3.76718 3.74987 3.53449 3.57837 3.80361 3.76718 2.97645 2.99458 2.95324 2.9646 2.98928 3.01483 2.97645 2.99458 1.6845 1.67245 1.66521 1.65361 1.71062 1.69803 1.6845 1.67245 2.99172 3.02448 2.98928 3.01483 2.98471 3.02394 2.99172 3.02448 1.74515 1.73186 1.71062 1.69803 1.78849 1.77439 1.74515 1.73186 2.98471 2.96953 3.02394 3.01436 2.96953 2.94749 3.01436 2.99707 1.83968 1.82478 1.78849 1.77439 1.89696 1.88139 1.83968 1.82478 2.91972 2.97331 2.94749 2.99707 2.88712 2.94414 2.91972 2.97331 1.9585 1.94238 1.89696 1.88139 2.02269 2.00614 1.9585 1.94238 2.88712 2.8504 2.94414 2.9104 2.8504 2.81011 2.9104 2.87273 2.08827 2.07137 2.02269 2.00614 2.15428 2.13707 2.08827 2.07137 2.81011 2.76665 2.87273 2.83164 2.76665 2.72032 2.83164 2.78748 2.21998 2.20248 2.15428 2.13707 2.28483 2.26705 2.21998 2.20248 2.67134 2.74054 2.72032 2.78748 2.61991 2.69102 2.67134 2.74054 2.34844 2.33037 2.28483 2.26705 2.41052 2.39213 2.34844 2.33037 2.56614 2.63909 2.61991 2.69102 2.51017 2.58487 2.56614 2.63909 2.47084 2.45213 2.41052 2.39213 2.52925 2.51017 2.47084 2.45213 3.80361 3.76718 4.0758 3.93943 3.76718 3.74987 3.93943 3.83004 3.63953 3.46583 3.71938 3.69611 3.63953 3.71938 3.74987 3.83004 1.74109 1.75801 1.77221 1.78292 1.74109 1.71322 1.75801 1.74988 1.75801 1.74988 1.78292 1.78951 2.96623 2.89661 3.01819 2.9278 2.89661 2.80045 2.9278 2.85923 3.01819 2.9278 2.98333 2.85923 2.52925 2.57311 2.51017 2.58487 1.66096 1.65325 1.65405 1.64653 1.67369 1.66096 1.65204 1.65405 1.67369 1.67029 1.66096 1.65325 60.9113 61.0746 60.2957 60.3759 60.7661 60.9113 60.2098 60.2957 60.6384 60.7661 60.1192 60.2098 60.523 60.6384 60.0321 60.1192 58.5652 58.6362 57.7423 57.8266 58.6362 58.6822 57.8266 57.8739 59.4246 59.4851 58.6362 58.6822 59.3551 59.4246 58.5652 58.6362 60.0321 60.1192 59.3551 59.4246 60.1192 60.2098 59.4246 59.4851 59.6164 59.6926 58.9021 58.9957 58.9021 58.9957 57.9893 58.1131 58.8085 58.9021 57.8697 57.9893 59.5431 59.6164 58.8085 58.9021 59.5553 59.5148 58.6258 58.5482 60.4972 60.5223 59.5553 59.5148 60.5223 60.5056 59.5148 59.4456 59.5148 59.4456 58.5482 58.4492 57.8697 57.9893 56.6682 56.8556 57.9893 58.1131 56.8556 57.0681 61.0746 61.2569 60.3759 60.4463 61.2569 61.455 60.4463 60.4972 61.6516 61.7995 60.5223 60.5056 61.455 61.6516 60.4972 60.5223 60.107 60.1688 59.6164 59.6926 60.056 60.107 59.5431 59.6164 58.6258 58.5482 57.7032 57.5781 58.5482 58.4492 57.5781 57.4294 60.2418 60.3248 59.7733 59.8576 60.1688 60.2418 59.6926 59.7733 60.4187 60.523 59.945 60.0321 60.3248 60.4187 59.8576 59.945 59.7733 59.8576 59.0919 59.1843 59.0919 59.1843 58.2434 58.3621 58.9957 59.0919 58.1131 58.2434 59.6926 59.7733 58.9957 59.0919 58.3621 58.4745 57.4659 57.6224 58.4745 58.5652 57.6224 57.7423 59.8576 59.945 59.1843 59.275 59.945 60.0321 59.275 59.3551 59.275 59.3551 58.4745 58.5652 59.1843 59.275 58.3621 58.4745 59.5674 59.5553 58.6769 58.6258 59.5553 59.5674 58.7021 58.6769 60.3759 60.4463 59.5553 59.5674 60.4463 60.4972 59.5674 59.5553 58.1131 58.2434 57.0681 57.2772 58.2434 58.3621 57.2772 57.4659 58.7044 58.7021 57.885 57.8582 58.6822 58.7044 57.8739 57.885 58.7021 58.6769 57.8582 57.7979 58.6769 58.6258 57.7979 57.7032 59.4851 59.5262 58.6822 58.7044 60.2098 60.2957 59.4851 59.5262 60.2957 60.3759 59.5262 59.5553 59.5262 59.5553 58.7044 58.7021 46.9276 46.737 48.6062 48.5561 47.1043 46.9276 48.6537 48.6062 49.09 49.0264 49.6964 49.6751 49.0264 48.9666 49.6751 49.6621 48.9666 48.9074 49.6621 49.6587 48.9074 48.8524 49.6587 49.6684 47.2664 47.1043 48.7007 48.6537 47.4136 47.2664 48.7483 48.7007 48.0292 47.9146 49.0264 48.9666 48.1392 48.0292 49.09 49.0264 48.6537 48.6062 49.8957 50.0122 48.6062 48.5561 50.0122 50.1467 47.798 47.678 48.9074 48.8524 47.9146 47.798 48.9666 48.9074 48.7483 48.7007 49.7375 49.8041 48.7007 48.6537 49.8041 49.8957 48.5561 48.5021 50.1467 50.281 48.5021 48.4379 50.281 50.3829 46.5444 46.3656 48.5021 48.4379 46.737 46.5444 48.5561 48.5021 49.2226 49.1547 49.756 49.7237 49.1547 49.09 49.7237 49.6964 48.2462 48.1392 49.1547 49.09 48.3492 48.2462 49.2226 49.1547 48.8524 48.7989 49.6684 49.6935 48.7989 48.7483 49.6935 49.7375 47.5496 47.4136 48.7989 48.7483 47.678 47.5496 48.8524 48.7989 129.186 129.054 108.283 108.102 129.054 129.022 108.102 107.93 195.831 195.763 194.454 194.386 194.454 194.386 192.598 192.531 194.476 194.454 192.621 192.598 195.853 195.831 194.476 194.454 189.816 189.331 191.767 191.272 191.767 191.272 193.198 192.694 187.178 186.721 189.816 189.331 183.686 183.245 187.178 186.721 154.802 141.469 154.638 141.337 141.469 124.034 141.337 123.884 196.782 195.769 196.671 195.657 196.671 195.657 196.518 195.505 197.339 196.671 197.181 196.518 197.452 196.782 197.339 196.671 158.119 157.765 168.253 167.973 157.765 157.33 167.973 167.619 167.973 167.619 175.809 175.544 168.253 167.973 176.005 175.809 187.445 186.964 184.082 183.676 189.97 189.458 187.445 186.964 192.462 192.386 194.41 194.338 194.41 194.338 195.838 195.769 194.438 194.41 195.864 195.838 192.496 192.462 194.438 194.41 186.929 186.821 182.705 182.533 186.821 186.658 182.533 182.296 182.533 182.296 176.955 176.649 182.705 182.533 177.198 176.955 193.668 193.201 192.291 191.825 192.291 191.825 190.436 189.97 192.713 192.291 190.858 190.436 194.089 193.668 192.713 192.291 187.556 187.178 190.221 189.816 187.88 187.556 190.584 190.221 184.277 184.008 187.88 187.556 184.008 183.686 187.556 187.178 197.512 197.489 196.843 196.821 197.489 197.422 196.821 196.753 196.821 196.753 195.831 195.763 196.843 196.821 195.853 195.831 197.512 197.901 197.489 197.879 197.901 198.035 197.879 198.013 197.879 198.013 197.811 197.945 197.489 197.879 197.422 197.811 191.825 191.313 189.97 189.458 193.201 192.69 191.825 191.313 194.191 193.68 193.201 192.69 194.86 194.348 194.191 193.68 190.103 190.001 186.821 186.658 190.159 190.103 186.929 186.821 192.621 192.598 190.159 190.103 192.598 192.531 190.103 190.001 192.202 191.767 193.654 193.198 192.592 192.202 194.063 193.654 190.584 190.221 192.592 192.202 190.221 189.816 192.202 191.767 196.874 195.864 196.85 195.838 196.85 195.838 196.782 195.769 197.52 196.85 197.452 196.782 197.542 196.874 197.52 196.85 198.035 197.92 198.013 197.897 197.92 197.542 197.897 197.52 197.897 197.52 197.829 197.452 198.013 197.897 197.945 197.829 196.124 196.514 195.748 196.138 196.456 196.845 196.124 196.514 196.845 196.979 196.514 196.648 196.514 196.648 196.138 196.272 195.087 194.063 194.676 193.654 194.676 193.654 194.215 193.198 195.357 194.676 194.89 194.215 195.778 195.087 195.357 194.676 192.257 192.094 194.221 194.062 194.221 194.062 195.657 195.505 194.338 194.221 195.769 195.657 192.386 192.257 194.338 194.221 195.249 195.383 194.738 194.872 194.86 195.249 194.348 194.738 194.89 194.215 194.379 193.707 194.215 193.198 193.707 192.694 195.748 195.327 195.079 194.658 195.327 194.86 194.658 194.191 194.658 194.191 193.668 193.201 195.079 194.658 194.089 193.668 190.436 189.97 187.826 187.445 187.826 187.445 184.368 184.082 188.163 187.826 184.503 184.368 190.858 190.436 188.163 187.826 196.138 196.272 195.716 195.85 195.716 195.85 195.249 195.383 195.327 195.716 194.86 195.249 195.748 196.138 195.327 195.716 197.309 197.151 196.64 196.482 196.64 196.482 195.65 195.492 196.753 196.64 195.763 195.65 197.422 197.309 196.753 196.64 196.155 195.449 195.778 195.087 196.486 195.766 196.155 195.449 195.766 194.7 195.449 194.399 195.449 194.399 195.087 194.063 195.383 195.268 194.872 194.756 195.268 194.89 194.756 194.379 197.717 197.339 197.559 197.181 197.832 197.717 197.675 197.559 197.945 197.829 197.832 197.717 197.829 197.452 197.717 197.339 197.698 197.832 197.54 197.675 197.309 197.698 197.151 197.54 197.422 197.811 197.309 197.698 197.811 197.945 197.698 197.832 195.85 195.734 195.383 195.268 196.272 196.156 195.85 195.734 196.156 195.778 195.734 195.357 195.734 195.357 195.268 194.89 196.864 196.486 196.532 196.155 196.532 196.155 196.156 195.778 196.648 196.532 196.272 196.156 196.979 196.864 196.648 196.532 195.456 195.079 194.465 194.089 195.787 195.456 194.796 194.465 196.456 196.124 195.787 195.456 196.124 195.748 195.456 195.079 196.482 196.279 195.492 195.289 197.151 196.948 196.482 196.279 196.948 196.699 196.279 196.031 196.279 196.031 195.289 195.041 197.151 197.54 196.948 197.337 197.54 197.675 197.337 197.471 197.337 197.471 197.089 197.223 196.948 197.337 196.699 197.089 193.089 192.713 191.234 190.858 193.42 193.089 191.565 191.234 194.796 194.465 193.42 193.089 194.465 194.089 193.089 192.713 197.356 196.978 197.108 196.73 197.471 197.356 197.223 197.108 197.675 197.559 197.471 197.356 197.559 197.181 197.356 196.978 196.582 196.456 195.913 195.787 195.913 195.787 194.923 194.796 196.031 195.913 195.041 194.923 196.699 196.582 196.031 195.913 195.65 195.492 194.272 194.114 194.272 194.114 192.414 192.253 194.386 194.272 192.531 192.414 195.763 195.65 194.386 194.272 197.089 197.223 196.971 197.105 196.971 197.105 196.845 196.979 196.582 196.971 196.456 196.845 196.699 197.089 196.582 196.971 197.223 197.108 197.105 196.989 197.108 196.73 196.989 196.61 196.989 196.61 196.864 196.486 197.105 196.989 196.979 196.864 193.876 193.654 195.325 195.109 194.062 193.876 195.505 195.325 192.094 191.893 194.062 193.876 191.893 191.658 193.876 193.654 196.518 195.505 196.325 195.325 196.325 195.325 196.093 195.109 196.978 196.325 196.73 196.093 197.181 196.518 196.978 196.325 192.414 192.253 189.824 189.598 189.824 189.598 186.4 186.02 190.001 189.824 186.658 186.4 192.531 192.414 190.001 189.824 191.177 190.894 193.213 192.92 190.894 190.584 192.92 192.592 192.92 192.592 194.399 194.063 193.213 192.92 194.7 194.399 194.923 194.796 193.548 193.42 193.548 193.42 191.696 191.565 193.669 193.548 191.819 191.696 195.041 194.923 193.669 193.548 193.913 193.669 192.058 191.819 194.114 193.913 192.253 192.058 195.492 195.289 194.114 193.913 195.289 195.041 193.913 193.669 186.457 186.386 189.897 189.851 186.386 186.276 189.851 189.76 189.851 189.76 192.462 192.386 189.897 189.851 192.496 192.462 183.686 179.031 183.245 178.678 179.031 172.957 178.678 172.664 196.73 196.093 196.61 195.936 196.093 195.109 195.936 194.909 195.936 194.909 195.766 194.7 196.61 195.936 196.486 195.766 191.422 191.177 193.444 193.213 193.444 193.213 194.909 194.7 193.654 193.444 195.109 194.909 191.658 191.422 193.654 193.444 179.691 179.375 174.007 173.781 184.082 183.676 179.691 179.375 189.42 189.185 192.094 191.893 185.861 185.567 189.42 189.185 185.567 185.272 189.185 188.913 189.185 188.913 191.893 191.658 181.933 176.005 181.811 175.809 181.811 175.809 181.638 175.544 186.386 181.811 186.276 181.638 186.457 181.933 186.386 181.811 165.058 164.836 172.957 172.664 154.802 154.638 165.058 164.836 129.867 129.459 108.892 108.577 129.459 129.186 108.577 108.283 166.666 166.519 157.191 157.094 174.007 173.781 166.666 166.519 189.76 189.616 192.386 192.257 186.276 186.104 189.76 189.616 186.104 185.861 189.616 189.42 189.616 189.42 192.257 192.094 176.955 176.649 169.71 169.342 169.71 169.342 160.303 159.9 170.021 169.71 160.666 160.303 177.198 176.955 170.021 169.71 179.508 173.313 179.313 173.144 179.313 173.144 179.031 172.957 184.008 179.313 183.686 179.031 184.277 179.508 184.008 179.313 130.779 130.303 109.622 109.273 130.303 129.867 109.273 108.892 129.022 128.958 107.93 107.767 128.958 128.913 107.767 107.59 160.303 159.9 148.063 147.634 148.063 147.634 132.029 131.647 148.447 148.063 132.386 132.029 160.666 160.303 148.447 148.063 144.854 127.393 144.453 127.006 144.453 127.006 143.984 126.575 157.765 144.453 157.33 143.984 158.119 144.854 157.765 144.453 128.913 128.806 107.59 107.389 144.902 144.842 128.913 128.806 157.191 157.094 144.902 144.842 174.026 174.133 166.602 166.705 166.602 166.705 157.022 157.177 166.435 166.602 156.792 157.022 173.916 174.026 166.435 166.602 167.298 166.86 157.747 157.286 174.67 174.221 167.298 166.86 174.221 173.916 166.86 166.435 166.86 166.435 157.286 156.792 167.867 167.298 158.377 157.747 168.415 167.867 158.938 158.377 175.785 175.225 168.415 167.867 175.225 174.67 167.867 167.298 124.034 100.775 123.884 100.537 141.441 124.119 141.463 124.042 141.463 124.042 141.472 124.128 154.861 141.463 154.834 141.472 154.895 141.441 154.861 141.463 131.647 131.215 110.296 109.979 131.215 130.779 109.979 109.622 141.514 124.106 141.469 124.034 154.863 141.514 154.802 141.469 154.834 141.472 154.863 141.514 141.472 124.128 141.514 124.106 155.671 155.242 166.206 165.901 166.206 165.901 174.276 174.022 166.596 166.206 174.652 174.276 156.063 155.671 166.596 166.206 165.242 165.187 173.313 173.144 154.834 154.863 165.242 165.187 154.863 154.802 165.187 165.058 165.187 165.058 173.144 172.957 157.177 157.207 144.901 144.933 157.207 157.191 144.933 144.902 144.933 144.902 128.958 128.913 144.901 144.933 129.022 128.958 191.696 191.565 188.573 188.368 188.573 188.368 184.208 183.891 188.766 188.573 184.509 184.208 191.819 191.696 188.766 188.573 180.208 179.853 174.67 174.221 184.509 184.208 180.208 179.853 184.208 183.891 179.853 179.505 179.853 179.505 174.221 173.916 156.766 143.44 156.063 142.854 157.33 143.984 156.766 143.44 143.984 126.575 143.44 126.074 143.44 126.074 142.854 125.442 147.634 147.183 131.647 131.215 159.9 159.43 147.634 147.183 159.43 158.938 147.183 146.679 147.183 146.679 131.215 130.779 142.309 124.802 141.817 124.464 155.671 142.309 155.242 141.817 156.063 142.854 155.671 142.309 142.854 125.442 142.309 124.802 144.725 144.837 129.186 129.054 156.792 157.022 144.725 144.837 157.022 157.177 144.837 144.901 144.837 144.901 129.054 129.022 165.605 165.447 173.777 173.579 165.901 165.605 174.022 173.777 155.242 155.018 165.901 165.605 155.018 154.895 165.605 165.447 158.938 158.377 146.679 146.159 158.377 157.747 146.159 145.637 146.159 145.637 130.303 129.867 146.679 146.159 130.779 130.303 157.286 156.792 145.175 144.725 145.175 144.725 129.459 129.186 145.637 145.175 129.867 129.459 157.747 157.286 145.637 145.175 155.018 141.519 154.895 141.441 155.242 141.817 155.018 141.519 141.817 124.464 141.519 124.144 141.519 124.144 141.441 124.119 185.861 181.041 185.567 180.732 181.041 174.652 180.732 174.276 180.732 174.276 180.429 174.022 185.567 180.732 185.272 180.429 180.906 180.208 175.225 174.67 181.51 180.906 175.785 175.225 186.02 185.308 181.51 180.906 185.308 184.509 180.906 180.208 183.891 184.26 179.505 179.776 184.26 184.503 179.776 179.924 179.776 179.924 174.026 174.133 179.505 179.776 173.916 174.026 192.058 191.819 189.206 188.766 189.206 188.766 185.308 184.509 189.598 189.206 186.02 185.308 192.253 192.058 189.598 189.206 154.861 154.834 165.349 165.242 165.349 165.242 173.43 173.313 165.447 165.349 173.579 173.43 154.895 154.861 165.447 165.349 179.694 173.43 179.508 173.313 184.519 179.694 184.277 179.508 184.747 179.887 184.519 179.694 179.887 173.579 179.694 173.43 179.887 179.691 174.129 174.007 179.924 179.887 174.133 174.129 184.503 184.368 179.924 179.887 184.368 184.082 179.887 179.691 188.422 188.162 191.177 190.894 184.747 184.519 188.422 188.162 184.519 184.277 188.162 187.88 188.162 187.88 190.894 190.584 186.4 186.02 181.966 181.51 181.966 181.51 176.258 175.785 182.296 181.966 176.649 176.258 186.658 186.4 182.296 181.966 188.288 188.163 184.26 184.503 188.368 188.288 183.891 184.26 191.565 191.234 188.368 188.288 191.234 190.858 188.288 188.163 181.638 175.544 181.374 175.172 181.374 175.172 181.041 174.652 186.104 181.374 185.861 181.041 186.276 181.638 186.104 181.374 167.158 166.596 175.172 174.652 167.619 167.158 175.544 175.172 157.33 156.766 167.619 167.158 156.766 156.063 167.158 166.596 169.342 168.913 159.9 159.43 176.649 176.258 169.342 168.913 176.258 175.785 168.913 168.415 168.913 168.415 159.43 158.938 174.133 174.129 166.705 166.732 174.129 174.007 166.732 166.666 166.732 166.666 157.207 157.191 166.705 166.732 157.177 157.207 185.272 185.022 188.913 188.682 185.022 184.747 188.682 188.422 188.682 188.422 191.422 191.177 188.913 188.682 191.658 191.422 185.022 180.165 184.747 179.887 185.272 180.429 185.022 180.165 180.429 174.022 180.165 173.777 180.165 173.777 179.887 173.579 47.6695 47.0661 51.9904 53.2052 48.4379 47.6695 50.3829 51.9904 46.3656 44.4705 48.4379 47.6695 58.4492 56.7924 57.4294 55.0801 60.5056 60.6553 59.4456 58.3428 59.4456 58.3428 58.4492 56.7924 62.4911 66.0098 60.6553 61.7478 61.7995 62.4911 60.5056 60.6553 62.186 116.963 60.6269 114.064 60.6269 114.064 58.5656 110.25 63.3559 64.2237 119.147 120.771 62.186 63.3559 116.963 119.147 51.6778 84.1851 45.0599 70.7257 45.0599 70.7257 37.5385 55.6502 63.7747 62.8478 120.425 118.761 64.4761 63.7747 121.669 120.425 64.9983 64.4761 122.58 121.669 65.375 64.9983 123.22 122.58 47.6153 40.6853 73.2178 59.5954 40.6853 34.8057 59.5954 49.822 58.3905 53.8096 95.4956 85.936 53.8096 47.6153 85.936 73.2178 59.9568 57.9416 113.661 109.925 57.9416 55.3135 109.925 105.044 53.1765 93.0466 51.6778 84.1851 52.2551 99.6459 53.1765 93.0466 65.5468 123.389 65.2059 122.786 65.7622 123.763 65.5468 123.389 65.7718 123.887 65.7622 123.763 65.6794 123.825 65.7718 123.887 62.8478 61.5867 118.761 116.556 61.5867 59.9568 116.556 113.661 55.3135 57.8326 105.044 101.635 57.8326 58.3905 101.635 95.4956 65.5814 123.624 65.6794 123.825 65.375 123.22 65.5814 123.624 34.8057 31.0866 49.822 44.8984 31.0866 28.9656 44.8984 42.2003 52.2551 55.8161 99.6459 105.364 55.8161 58.5656 105.364 110.25 64.2237 64.8087 120.771 121.952 64.8087 65.2059 121.952 122.786 1.72339 4.79555 1.67029 1.64739 1.77221 7.67526 1.72339 4.79555 14.6123 7.7052 7.67526 4.79555 7.7052 1.64181 4.79555 1.64739 51.6778 45.0599 26.7926 24.0277 45.0599 37.5385 24.0277 20.5449 52.2551 53.1765 27.6121 27.9515 53.1765 51.6778 27.9515 26.7926 55.8161 29.3975 58.5656 30.7681 52.2551 27.6121 55.8161 29.3975 43.9032 44.4082 31.1493 29.9068 43.6397 43.9032 30.4817 31.1493 44.9317 44.7176 32.6704 31.9918 44.3719 44.9317 31.8265 32.6704 62.186 60.6269 32.576 31.8026 60.6269 58.5656 31.8026 30.7681 63.3559 33.1488 64.2237 33.5617 62.186 32.576 63.3559 33.1488 64.8087 33.8445 65.2059 34.0388 64.2237 33.5617 64.8087 33.8445 65.7622 65.5468 34.24 34.1718 65.5468 65.2059 34.1718 34.0388 65.6794 65.7718 34.177 34.2349 65.7718 65.7622 34.2349 34.24 65.375 65.5814 33.9405 34.0841 65.