# vtk DataFile Version 3.0
#This file was generated by the deal.II library on 2020/5/26 at 18:52:19
ASCII
DATASET UNSTRUCTURED_GRID

POINTS 7260 double
0 0 0
0.466667 0 0
0 0.4 0
0.45119 0.4 0
0.466667 0 0
0.933333 0 0
0.45119 0.4 0
0.902381 0.4 0
0.483333 23.6 0
0.966667 23.6 0
0.466667 24 0
0.933333 24 0
0 23.6 0
0.483333 23.6 0
0 24 0
0.466667 24 0
0 23.2 0
0.5 23.2 0
0 23.6 0
0.483333 23.6 0
0.5 23.2 0
1 23.2 0
0.483333 23.6 0
0.966667 23.6 0
0.933333 0 0
1.4 0 0
0.902381 0.4 0
1.35357 0.4 0
1.4 0 0
1.86667 0 0
1.35357 0.4 0
1.80476 0.4 0
1.45 23.6 0
1.93333 23.6 0
1.4 24 0
1.86667 24 0
0.966667 23.6 0
1.45 23.6 0
0.933333 24 0
1.4 24 0
1 23.2 0
1.5 23.2 0
0.966667 23.6 0
1.45 23.6 0
1.5 23.2 0
2 23.2 0
1.45 23.6 0
1.93333 23.6 0
1.86667 0 0
2.33333 0 0
1.80476 0.4 0
2.25595 0.4 0
2.33333 0 0
2.8 0 0
2.25595 0.4 0
2.70714 0.4 0
2.41667 23.6 0
2.9 23.6 0
2.33333 24 0
2.8 24 0
1.93333 23.6 0
2.41667 23.6 0
1.86667 24 0
2.33333 24 0
2 23.2 0
2.5 23.2 0
1.93333 23.6 0
2.41667 23.6 0
2.5 23.2 0
3 23.2 0
2.41667 23.6 0
2.9 23.6 0
2.8 0 0
3.26667 0 0
2.70714 0.4 0
3.15833 0.4 0
3.26667 0 0
3.73333 0 0
3.15833 0.4 0
3.60952 0.4 0
3.38333 23.6 0
3.86667 23.6 0
3.26667 24 0
3.73333 24 0
2.9 23.6 0
3.38333 23.6 0
2.8 24 0
3.26667 24 0
3 23.2 0
3.5 23.2 0
2.9 23.6 0
3.38333 23.6 0
3.5 23.2 0
4 23.2 0
3.38333 23.6 0
3.86667 23.6 0
3.73333 0 0
4.2 0 0
3.60952 0.4 0
4.06071 0.400002 0
4.2 0 0
4.66667 0 0
4.06071 0.400002 0
4.51187 0.400017 0
4.35 23.6 0
4.83333 23.6 0
4.2 24 0
4.66667 24 0
3.86667 23.6 0
4.35 23.6 0
3.73333 24 0
4.2 24 0
4 23.2 0
4.5 23.2 0
3.86667 23.6 0
4.35 23.6 0
4.5 23.2 0
5 23.2 0
4.35 23.6 0
4.83333 23.6 0
4.66667 0 0
5.13333 0 0
4.51187 0.400017 0
4.96274 0.40018 0
5.13333 0 0
5.6 0 0
4.96274 0.40018 0
5.412 0.401188 0
5.31667 23.6 0
5.8 23.6 0
5.13333 24 0
5.6 24 0
4.83333 23.6 0
5.31667 23.6 0
4.66667 24 0
5.13333 24 0
5 23.2 0
5.5 23.2 0
4.83333 23.6 0
5.31667 23.6 0
5.5 23.2 0
6 23.2 0
5.31667 23.6 0
5.8 23.6 0
7.7656 0.408656 0
8.08564 0.489853 0
7.625 0.8 0
8 0.8 0
7.37297 0.372717 0
7.7656 0.408656 0
7.25 0.8 0
7.625 0.8 0
7.46667 0 0
7.93333 0 0
7.37297 0.372717 0
7.7656 0.408656 0
7.93333 0 0
8.4 0 0
7.7656 0.408656 0
8.08564 0.489853 0
5.851 0.407784 0
6.22598 0.450874 0
5.66429 0.8 0
6.1 0.8 0
5.6 0 0
6.06667 0 0
5.412 0.401188 0
5.851 0.407784 0
6.06667 0 0
6.53333 0 0
5.851 0.407784 0
6.22598 0.450874 0
8.4 1.5 0
8.20238 1.40048 0
8.4 1 0
8.21539 0.946782 0
8.4 2 0
8.20022 1.8875 0
8.4 1.5 0
8.20238 1.40048 0
8 1.77391 0
8 1.28696 0
8.20022 1.8875 0
8.20238 1.40048 0
8 1.28696 0
8 0.8 0
8.20238 1.40048 0
8.21539 0.946782 0
8.21496 23.0543 0
8.2025 22.599 0
8.4 23 0
8.4 22.5 0
8 23.2 0
8 22.713 0
8.21496 23.0543 0
8.2025 22.599 0
8 22.2261 0
8.20035 22.1121 0
8 22.713 0
8.2025 22.599 0
8.20035 22.1121 0
8.4 22 0
8.2025 22.599 0
8.4 22.5 0
6.28333 23.6 0
6.76667 23.6 0
6.06667 24 0
6.53333 24 0
5.8 23.6 0
6.28333 23.6 0
5.6 24 0
6.06667 24 0
6 23.2 0
6.5 23.2 0
5.8 23.6 0
6.28333 23.6 0
6.5 23.2 0
7 23.2 0
6.28333 23.6 0
6.76667 23.6 0
7.69489 23.5856 0
7.5 23.2 0
8.06391 23.5091 0
8 23.2 0
7.69489 23.5856 0
8.06391 23.5091 0
7.93333 24 0
8.4 24 0
7.23333 23.6 0
7.69489 23.5856 0
7.46667 24 0
7.93333 24 0
7.23333 23.6 0
7 23.2 0
7.69489 23.5856 0
7.5 23.2 0
8 2.26087 0
8.20003 2.3805 0
8 2.74783 0
8.2 2.87391 0
8 1.77391 0
8.20022 1.8875 0
8 2.26087 0
8.20003 2.3805 0
8.4 2 0
8.4 2.5 0
8.20022 1.8875 0
8.20003 2.3805 0
8.4 2.5 0
8.4 3 0
8.20003 2.3805 0
8.2 2.87391 0
8.20005 21.6194 0
8.4 21.5 0
8.20035 22.1121 0
8.4 22 0
8 21.7391 0
8.20005 21.6194 0
8 22.2261 0
8.20035 22.1121 0
8 21.2522 0
8.2 21.1261 0
8 21.7391 0
8.20005 21.6194 0
8.2 21.1261 0
8.4 21 0
8.20005 21.6194 0
8.4 21.5 0
8 2.74783 0
8.2 2.87391 0
8 3.23478 0
8.2 3.36739 0
8.4 3 0
8.4 3.5 0
8.2 2.87391 0
8.2 3.36739 0
8.4 3.5 0
8.4 4 0
8.2 3.36739 0
8.2 3.86087 0
8.2 20.6326 0
8.4 20.5 0
8.2 21.1261 0
8.4 21 0
8 20.7652 0
8.2 20.6326 0
8 21.2522 0
8.2 21.1261 0
8 20.2783 0
8.2 20.1391 0
8 20.7652 0
8.2 20.6326 0
8.2 20.1391 0
8.4 20 0
8.2 20.6326 0
8.4 20.5 0
7 0 0
7.46667 0 0
7.00198 0.331094 0
7.37297 0.372717 0
7.00198 0.331094 0
7.37297 0.372717 0
6.94022 0.576588 0
7.25 0.8 0
7.00198 0.331094 0
6.94022 0.576588 0
6.69426 0.367442 0
6.75692 0.535711 0
7 0 0
7.00198 0.331094 0
6.53333 0 0
6.69426 0.367442 0
8.4 4.5 0
8.2 4.35435 0
8.4 4 0
8.2 3.86087 0
8.4 5 0
8.2 4.84783 0
8.4 4.5 0
8.2 4.35435 0
8.2 19.6457 0
8.4 19.5 0
8.2 20.1391 0
8.4 20 0
8 19.7913 0
8.2 19.6457 0
8 20.2783 0
8.2 20.1391 0
8 19.3043 0
8.2 19.1522 0
8 19.7913 0
8.2 19.6457 0
8.2 19.1522 0
8.4 19 0
8.2 19.6457 0
8.4 19.5 0
8.4 5.5 0
8.2 5.3413 0
8.4 5 0
8.2 4.84783 0
8.4 6 0
8.2 5.83478 0
8.4 5.5 0
8.2 5.3413 0
8.2 18.6587 0
8.4 18.5 0
8.2 19.1522 0
8.4 19 0
8.2 18.1652 0
8.4 18 0
8.2 18.6587 0
8.4 18.5 0
8.4 6 0
8.4 6.5 0
8.2 5.83478 0
8.2 6.32826 0
8.4 6.5 0
8.4 7 0
8.2 6.32826 0
8.2 6.82174 0
8.2 17.6717 0
8.4 17.5 0
8.2 18.1652 0
8.4 18 0
8.2 17.1783 0
8.4 17 0
8.2 17.6717 0
8.4 17.5 0
8.4 7.5 0
8.2 7.31522 0
8.4 7 0
8.2 6.82174 0
8.4 8 0
8.2 7.8087 0
8.4 7.5 0
8.2 7.31522 0
8.2 16.6848 0
8.4 16.5 0
8.2 17.1783 0
8.4 17 0
8.2 16.1913 0
8.4 16 0
8.2 16.6848 0
8.4 16.5 0
8.4 8 0
8.4 8.5 0
8.2 7.8087 0
8.2 8.30217 0
8.4 8.5 0
8.4 9 0
8.2 8.30217 0
8.2 8.79565 0
8.2 15.6978 0
8.4 15.5 0
8.2 16.1913 0
8.4 16 0
8.2 15.2043 0
8.4 15 0
8.2 15.6978 0
8.4 15.5 0
8.4 9 0
8.4 9.5 0
8.2 8.79565 0
8.2 9.28913 0
8.4 9.5 0
8.4 10 0
8.2 9.28913 0
8.2 9.78261 0
8.2 14.7109 0
8.4 14.5 0
8.2 15.2043 0
8.4 15 0
8.2 14.2174 0
8.4 14 0
8.2 14.7109 0
8.4 14.5 0
8.4 10.5 0
8.2 10.2761 0
8.4 10 0
8.2 9.78261 0
8.4 11 0
8.2 10.7696 0
8.4 10.5 0
8.2 10.2761 0
8.2 13.7239 0
8.4 13.5 0
8.2 14.2174 0
8.4 14 0
8.2 13.2304 0
8.4 13 0
8.2 13.7239 0
8.4 13.5 0
8.4 11.5 0
8.2 11.263 0
8.4 11 0
8.2 10.7696 0
8.4 12 0
8.2 11.7565 0
8.4 11.5 0
8.2 11.263 0
8.2 12.737 0
8.4 12.5 0
8.2 13.2304 0
8.4 13 0
8.2 12.2435 0
8.4 12 0
8.2 12.737 0
8.4 12.5 0
6.47056 0.554541 0
6.65423 0.648139 0
6.3 0.8 0
6.5 0.8 0
6.22598 0.450874 0
6.47056 0.554541 0
6.1 0.8 0
6.3 0.8 0
6.53333 0 0
6.69426 0.367442 0
6.22598 0.450874 0
6.47056 0.554541 0
6.69426 0.367442 0
6.75692 0.535711 0
6.47056 0.554541 0
6.65423 0.648139 0
6.94022 0.576588 0
7.25 0.8 0
6.82768 0.687981 0
6.875 0.8 0
6.82768 0.687981 0
6.875 0.8 0
6.65423 0.648139 0
6.5 0.8 0
6.94022 0.576588 0
6.82768 0.687981 0
6.75692 0.535711 0
6.65423 0.648139 0
7.23333 23.6 0
7 23.7333 0
7 23.2 0
6.76667 23.6 0
7.23333 23.6 0
7.46667 24 0
7 23.7333 0
7 24 0
7 23.7333 0
7 24 0
6.76667 23.6 0
6.53333 24 0
8.4 0 0
8.4 0.5 0
8.08564 0.489853 0
8.24539 0.628305 0
8.4 0.5 0
8.4 1 0
8.24539 0.628305 0
8.21539 0.946782 0
8.08564 0.489853 0
8.24539 0.628305 0
8 0.8 0
8.21539 0.946782 0
8.2 12.2435 0
8.13333 12 0
8.4 12 0
8.2 11.7565 0
8.2409 23.3709 0
8.21496 23.0543 0
8.4 23.5 0
8.4 23 0
8.06391 23.5091 0
8.2409 23.3709 0
8.4 24 0
8.4 23.5 0
8.06391 23.5091 0
8 23.2 0
8.2409 23.3709 0
8.21496 23.0543 0
3.92285 19.2089 0
4.35873 19.2071 0
3.92402 19.6155 0
4.36024 19.6131 0
3.48654 19.2104 0
3.92285 19.2089 0
3.48709 19.6173 0
3.92402 19.6155 0
3.04979 19.2095 0
3.48654 19.2104 0
3.04963 19.6194 0
3.48709 19.6173 0
2.61306 19.209 0
3.04979 19.2095 0
2.61199 19.618 0
3.04963 19.6194 0
3.04985 20.8074 0
3.4864 20.8076 0
3.05 21.2 0
3.48571 21.2 0
2.6132 20.8075 0
3.04985 20.8074 0
2.61429 21.2 0
3.05 21.2 0
2.61227 20.4138 0
3.04975 20.4138 0
2.6132 20.8075 0
3.04985 20.8074 0
3.04975 20.4138 0
3.48707 20.4145 0
3.04985 20.8074 0
3.4864 20.8076 0
3.04974 20.0186 0
3.48724 20.0176 0
3.04975 20.4138 0
3.48707 20.4145 0
2.61181 20.0173 0
3.04974 20.0186 0
2.61227 20.4138 0
3.04975 20.4138 0
2.61199 19.618 0
3.04963 19.6194 0
2.61181 20.0173 0
3.04974 20.0186 0
3.04963 19.6194 0
3.48709 19.6173 0
3.04974 20.0186 0
3.48724 20.0176 0
0.432966 19.604 0
0.866169 19.6083 0
0.432331 20.0047 0
0.865158 20.0094 0
0.432331 20.0047 0
0.865158 20.0094 0
0.431771 20.4049 0
0.864168 20.4095 0
0 20 0
0.432331 20.0047 0
0 20.4 0
0.431771 20.4049 0
0 19.6 0
0.432966 19.604 0
0 20 0
0.432331 20.0047 0
5.23131 20.0079 0
5.66598 20.0043 0
5.23131 20.4073 0
5.66612 20.4043 0
5.23107 19.6073 0
5.66553 19.6034 0
5.23131 20.0079 0
5.66598 20.0043 0
5.66553 19.6034 0
6.1 19.6 0
5.66598 20.0043 0
6.1 20 0
5.66598 20.0043 0
6.1 20 0
5.66612 20.4043 0
6.1 20.4 0
0 20.4 0
0.431771 20.4049 0
0 20.8 0
0.433758 20.8025 0
0.431771 20.4049 0
0.864168 20.4095 0
0.433758 20.8025 0
0.867586 20.8051 0
0.433758 20.8025 0
0.867586 20.8051 0
0.435714 21.2 0
0.871429 21.2 0
4.35873 19.2071 0
4.79445 19.2057 0
4.36024 19.6131 0
4.79575 19.61 0
4.79445 19.2057 0
5.22993 19.2041 0
4.79575 19.61 0
5.23107 19.6073 0
5.66501 19.202 0
6.1 19.2 0
5.66553 19.6034 0
6.1 19.6 0
5.22993 19.2041 0
5.66501 19.202 0
5.23107 19.6073 0
5.66553 19.6034 0
0.434142 19.2024 0
0.868611 19.2046 0
0.432966 19.604 0
0.866169 19.6083 0
0 19.2 0
0.434142 19.2024 0
0 19.6 0
0.432966 19.604 0
5.23131 20.4073 0
5.66612 20.4043 0
5.23046 20.8047 0
5.66527 20.8023 0
5.66612 20.4043 0
6.1 20.4 0
5.66527 20.8023 0
6.1 20.8 0
5.66527 20.8023 0
6.1 20.8 0
5.66429 21.2 0
6.1 21.2 0
5.23046 20.8047 0
5.66527 20.8023 0
5.22857 21.2 0
5.66429 21.2 0
1.30395 19.2062 0
1.73965 19.2079 0
1.30084 19.6116 0
1.73679 19.6143 0
0.868611 19.2046 0
1.30395 19.2062 0
0.866169 19.6083 0
1.30084 19.6116 0
2.17624 19.2085 0
2.61306 19.209 0
2.17407 19.6159 0
2.61199 19.618 0
1.73965 19.2079 0
2.17624 19.2085 0
1.73679 19.6143 0
2.17407 19.6159 0
1.30084 19.6116 0
1.73679 19.6143 0
1.30041 20.0122 0
1.73639 20.0151 0
1.30041 20.0122 0
1.73639 20.0151 0
1.30061 20.4111 0
1.73674 20.4137 0
0.865158 20.0094 0
1.30041 20.0122 0
0.864168 20.4095 0
1.30061 20.4111 0
0.866169 19.6083 0
1.30084 19.6116 0
0.865158 20.0094 0
1.30041 20.0122 0
2.17646 20.8072 0
2.6132 20.8075 0
2.17857 21.2 0
2.61429 21.2 0
1.73953 20.8074 0
2.17646 20.8072 0
1.74286 21.2 0
2.17857 21.2 0
1.73674 20.4137 0
2.1748 20.413 0
1.73953 20.8074 0
2.17646 20.8072 0
2.1748 20.413 0
2.61227 20.4138 0
2.17646 20.8072 0
2.6132 20.8075 0
1.73679 19.6143 0
2.17407 19.6159 0
1.73639 20.0151 0
[...]
POINT_DATA 7260
SCALARS solution double 1
LOOKUP_TABLE default
8.79914 8.61021 8.74267 8.56042 8.61021 8.25301 8.56042 8.25648 2.26617 2.25288 2.26331 2.2456 2.27067 2.26617 2.27381 2.26331 2.27283 2.27564 2.27067 2.26617 2.27564 2.26627 2.26617 2.25288 8.25301 7.8434 8.25648 7.89289 7.8434 7.41602 7.89289 7.50111 2.23156 2.20371 2.22156 2.19243 2.25288 2.23156 2.2456 2.22156 2.26627 2.24652 2.25288 2.23156 2.24652 2.21879 2.23156 2.20371 7.41602 6.98743 7.50111 7.09956 6.98743 6.56703 7.09956 6.69966 2.17088 2.13433 2.15937 2.12333 2.20371 2.17088 2.19243 2.15937 2.21879 2.18522 2.20371 2.17088 2.18522 2.14741 2.17088 2.13433 6.56703 6.16037 6.69966 6.30852 6.16037 5.77057 6.30852 5.93045 2.095 2.05356 2.08502 2.04497 2.13433 2.095 2.12333 2.08502 2.14741 2.10649 2.13433 2.095 2.10649 2.06321 2.095 2.05356 5.77057 5.39921 5.93045 5.56791 5.39921 5.04688 5.56791 5.2222 2.01048 1.96611 2.00359 1.96121 2.05356 2.01048 2.04497 2.00359 2.06321 2.01803 2.05356 2.01048 2.01803 1.97121 2.01048 1.96611 5.04688 4.71338 5.2222 4.89409 4.71338 4.39739 4.89409 4.58496 1.92077 1.87484 1.91817 1.87492 1.96611 1.92077 1.96121 1.91817 1.97121 1.9229 1.96611 1.92077 1.9229 1.87333 1.92077 1.87484 3.17532 3.01808 3.24739 2.98318 3.37648 3.17532 3.46625 3.24739 3.29868 3.10546 3.37648 3.17532 3.10546 2.9661 3.17532 3.01808 4.30173 4.07649 4.46832 4.21889 4.39739 4.09505 4.58496 4.30173 4.09505 3.80411 4.30173 4.07649 2.77693 2.79997 2.80014 2.85897 2.80112 2.80775 2.77693 2.79997 2.81284 2.82213 2.80775 2.79997 2.82213 2.98318 2.79997 2.85897 1.65347 1.64151 1.64672 1.63425 1.67052 1.64775 1.65347 1.64151 1.64242 1.6358 1.64775 1.64151 1.6358 1.62734 1.64151 1.63425 1.82889 1.78368 1.83201 1.79019 1.87484 1.82889 1.87492 1.83201 1.87333 1.82304 1.87484 1.82889 1.82304 1.77298 1.82889 1.78368 1.70241 1.72385 1.67386 1.67052 1.70241 1.67386 1.68082 1.65199 1.74159 1.70241 1.71346 1.68082 1.74159 1.77298 1.70241 1.72385 2.84405 2.84261 2.88673 2.88477 2.81284 2.80775 2.84405 2.84261 2.80112 2.84021 2.80775 2.84261 2.84021 2.88181 2.84261 2.88477 1.63633 1.62676 1.6358 1.62734 1.64411 1.63633 1.64242 1.6358 1.65118 1.64223 1.64411 1.63633 1.64223 1.63175 1.63633 1.62676 2.88673 2.88477 2.93133 2.9266 2.88181 2.92053 2.88477 2.9266 2.92053 2.95287 2.9266 2.96414 1.65254 1.64138 1.64223 1.63175 1.66236 1.65254 1.65118 1.64223 1.67719 1.667 1.66236 1.65254 1.667 1.65534 1.65254 1.64138 3.53474 3.29868 3.57878 3.37648 3.57878 3.37648 3.6401 3.46625 3.57878 3.6401 3.7678 3.75055 3.53474 3.57878 3.80411 3.7678 2.97623 2.99425 2.95287 2.96414 2.98921 3.01465 2.97623 2.99425 1.68647 1.67437 1.667 1.65534 1.69664 1.68647 1.67719 1.667 1.7227 1.71267 1.69664 1.68647 1.71267 1.70003 1.68647 1.67437 2.99181 3.02446 2.98921 3.01465 2.98493 3.02408 2.99181 3.02446 1.74716 1.73383 1.71267 1.70003 1.79041 1.77628 1.74716 1.73383 2.98493 2.96988 3.02408 3.01463 2.96988 2.94794 3.01463 2.99745 1.84148 1.82657 1.79041 1.77628 1.89866 1.88307 1.84148 1.82657 2.92025 2.97379 2.94794 2.99745 2.88772 2.9447 2.92025 2.97379 1.9601 1.94396 1.89866 1.88307 2.02421 2.00764 1.9601 1.94396 2.88772 2.85107 2.9447 2.91103 2.85107 2.81084 2.91103 2.87343 2.08971 2.07279 2.02421 2.00764 2.15564 2.13841 2.08971 2.07279 2.81084 2.76743 2.87343 2.83239 2.76743 2.72114 2.83239 2.78828 2.22128 2.20376 2.15564 2.13841 2.28607 2.26827 2.22128 2.20376 2.67222 2.74139 2.72114 2.78828 2.62083 2.69192 2.67222 2.74139 2.34963 2.33153 2.28607 2.26827 2.41165 2.39324 2.34963 2.33153 2.56711 2.64003 2.62083 2.69192 2.51119 2.58586 2.56711 2.64003 2.47193 2.45319 2.41165 2.39324 2.53028 2.51119 2.47193 2.45319 3.94026 3.83104 4.11144 3.96484 4.07649 3.94026 4.21889 4.11144 3.80411 3.7678 4.07649 3.94026 3.7678 3.75055 3.94026 3.83104 3.6401 3.46625 3.71993 3.69741 3.71993 3.69741 3.83104 3.96484 3.6401 3.71993 3.75055 3.83104 1.74159 1.75857 1.77298 1.78368 1.74159 1.71346 1.75857 1.75032 1.75857 1.75032 1.78368 1.79019 2.9661 2.89642 3.01808 2.92762 2.89642 2.80014 2.92762 2.85897 3.01808 2.92762 2.98318 2.85897 2.53028 2.57412 2.51119 2.58586 1.66111 1.65347 1.65413 1.64672 1.67386 1.66111 1.65199 1.65413 1.67386 1.67052 1.66111 1.65347 61.722 61.8834 61.1002 61.1769 61.5783 61.722 61.0174 61.1002 61.4518 61.5783 60.9296 61.0174 61.3377 61.4518 60.845 60.9296 58.6316 58.6729 57.8806 57.924 58.554 58.6316 57.7918 57.8806 59.378 59.444 58.554 58.6316 59.444 59.4851 58.6316 58.6729 60.2334 60.2902 59.444 59.4851 60.1675 60.2334 59.378 59.444 60.845 60.9296 60.1675 60.2334 60.9296 61.0174 60.2334 60.2902 60.4384 60.5135 59.7287 59.8204 59.7287 59.8204 58.8258 58.9458 59.6363 59.7287 58.7084 58.8258 60.3657 60.4384 59.6363 59.7287 60.3457 60.3019 59.4126 59.3321 61.2897 61.3099 60.3457 60.3019 61.3099 61.2885 60.3019 60.2298 60.3019 60.2298 59.3321 59.2302 58.7084 58.8258 57.5276 57.7133 58.8258 58.9458 57.7133 57.9148 57.7133 57.9148 56.317 56.8377 61.8834 62.0622 61.1769 61.2433 62.0622 62.2541 61.2433 61.2897 62.4405 62.5768 61.3099 61.2885 62.2541 62.4405 61.2897 61.3099 60.928 60.9889 60.4384 60.5135 60.8772 60.928 60.3657 60.4384 59.4126 59.3321 58.4833 58.3558 59.3321 59.2302 58.3558 58.1992 58.3558 58.1992 57.3829 57.0189 58.4833 58.3558 57.6195 57.3829 61.0607 61.1423 60.5927 60.6751 60.9889 61.0607 60.5135 60.5927 61.2348 61.3377 60.7603 60.845 61.1423 61.2348 60.6751 60.7603 60.5927 60.6751 59.9141 60.0035 59.9141 60.0035 59.0715 59.1853 59.8204 59.9141 58.9458 59.0715 60.5135 60.5927 59.8204 59.9141 58.4414 58.554 57.6542 57.7918 58.293 58.4414 57.4605 57.6542 59.1853 59.2924 58.293 58.4414 59.2924 59.378 58.4414 58.554 60.6751 60.7603 60.0035 60.0909 60.7603 60.845 60.0909 60.1675 60.0909 60.1675 59.2924 59.378 60.0035 60.0909 59.1853 59.2924 60.3614 60.3457 59.4672 59.4126 60.3529 60.3614 59.4963 59.4672 61.1769 61.2433 60.3529 60.3614 61.2433 61.2897 60.3614 60.3457 57.9148 58.1134 56.8377 57.1972 58.9458 59.0715 57.9148 58.1134 59.0715 59.1853 58.1134 58.293 58.1134 58.293 57.1972 57.4605 59.5028 59.4963 58.6785 58.6466 58.6785 58.6466 57.9228 57.8753 58.6729 58.6785 57.924 57.9228 59.4851 59.5028 58.6729 58.6785 59.4963 59.4672 58.6466 58.5819 59.4672 59.4126 58.5819 58.4833 58.5819 58.4833 57.7772 57.6195 58.6466 58.5819 57.8753 57.7772 60.2902 60.3276 59.4851 59.5028 61.0174 61.1002 60.2902 60.3276 61.1002 61.1769 60.3276 60.3529 60.3276 60.3529 59.5028 59.4963 46.9488 46.7589 48.6342 48.5826 47.1265 46.9488 48.6832 48.6342 49.127 49.0628 49.7387 49.7167 49.0628 49.0022 49.7167 49.703 49.0022 48.9423 49.703 49.6992 48.9423 48.8863 49.6992 49.7086 47.2901 47.1265 48.7316 48.6832 47.4393 47.2901 48.7803 48.7316 48.0605 47.9454 49.0628 49.0022 48.1707 48.0605 49.127 49.0628 46.9192 46.742 48.1707 48.0605 46.742 46.5819 48.0605 47.9454 48.6832 48.6342 49.9346 50.0488 48.6342 48.5826 50.0488 50.1793 47.8278 47.7065 48.9423 48.8863 47.9454 47.8278 49.0022 48.9423 46.5819 46.4267 47.9454 47.8278 46.4267 46.2689 47.8278 47.7065 48.7803 48.7316 49.7777 49.8439 48.7316 48.6832 49.8439 49.9346 48.5826 48.5276 50.1793 50.3082 48.5276 48.4596 50.3082 50.406 46.5676 46.3573 48.5276 48.4596 46.7589 46.5676 48.5826 48.5276 49.262 49.1924 49.8 49.7668 49.1924 49.127 49.7668 49.7387 47.1307 46.9192 48.2793 48.1707 48.2793 48.1707 49.1924 49.127 48.3911 48.2793 49.262 49.1924 47.3371 47.1307 48.3911 48.2793 48.8863 48.8319 49.7086 49.7337 48.8319 48.7803 49.7337 49.7777 47.5767 47.4393 48.8319 48.7803 47.7065 47.5767 48.8863 48.8319 46.2689 46.1025 47.7065 47.5767 46.1025 45.9208 47.5767 47.4393 129.061 128.927 108.046 107.857 128.927 128.894 107.857 107.677 195.82 195.752 194.441 194.374 194.441 194.374 192.583 192.515 194.464 194.441 192.605 192.583 195.842 195.82 194.464 194.441 189.778 189.293 191.738 191.242 189.293 188.737 191.242 190.688 191.242 190.688 192.671 192.12 191.738 191.242 193.175 192.671 186.671 186.126 189.293 188.737 187.128 186.671 189.778 189.293 183.62 183.179 187.128 186.671 183.179 182.672 186.671 186.126 154.448 141.089 154.214 140.89 154.61 141.219 154.448 141.089 141.219 123.709 141.089 123.558 141.089 123.558 140.89 123.349 196.764 195.746 196.653 195.634 196.653 195.634 196.5 195.482 197.325 196.653 197.167 196.5 197.438 196.764 197.325 196.653 157.928 157.572 168.107 167.825 157.572 157.136 167.825 167.47 167.825 167.47 175.696 175.43 168.107 167.825 175.893 175.696 187.426 186.945 184.057 183.652 189.954 189.443 187.426 186.945 189.443 188.886 186.945 186.422 186.945 186.422 183.652 183.187 192.423 192.347 194.38 194.308 194.38 194.308 195.815 195.746 194.409 194.38 195.841 195.815 192.457 192.423 194.409 194.38 186.904 186.797 182.674 182.502 186.797 186.634 182.502 182.264 182.502 182.264 176.914 176.607 182.674 182.502 177.157 176.914 193.657 193.191 192.279 191.812 192.279 191.812 190.421 189.954 192.7 192.279 190.842 190.421 194.079 193.657 192.7 192.279 187.505 187.128 190.182 189.778 187.829 187.505 190.545 190.182 184.21 183.941 187.829 187.505 183.941 183.62 187.505 187.128 197.503 197.48 196.834 196.811 197.48 197.413 196.811 196.744 196.811 196.744 195.82 195.752 196.834 196.811 195.842 195.82 197.503 197.892 197.48 197.87 197.892 198.025 197.87 198.003 197.87 198.003 197.802 197.935 197.48 197.87 197.413 197.802 191.812 191.301 189.954 189.443 193.191 192.679 191.812 191.301 192.679 192.122 191.301 190.744 191.301 190.744 189.443 188.886 193.67 193.114 192.679 192.122 194.182 193.67 193.191 192.679 194.851 194.339 194.182 193.67 194.339 193.782 193.67 193.114 190.084 189.982 186.797 186.634 190.14 190.084 186.904 186.797 192.605 192.583 190.14 190.084 192.583 192.515 190.084 189.982 192.172 191.738 193.631 193.175 192.563 192.172 194.04 193.631 190.545 190.182 192.563 192.172 190.182 189.778 192.172 191.738 196.856 195.841 196.832 195.815 196.832 195.815 196.764 195.746 197.505 196.832 197.438 196.764 197.528 196.856 197.505 196.832 198.025 197.908 198.003 197.885 197.908 197.528 197.885 197.505 197.885 197.505 197.818 197.438 198.003 197.885 197.935 197.818 196.116 196.505 195.739 196.128 196.447 196.836 196.116 196.505 196.836 196.969 196.505 196.638 196.505 196.638 196.128 196.262 195.069 194.04 194.658 193.631 194.658 193.631 194.197 193.175 195.343 194.658 194.876 194.197 195.764 195.069 195.343 194.658 192.218 192.055 194.191 194.032 194.191 194.032 195.634 195.482 194.308 194.191 195.746 195.634 192.347 192.218 194.308 194.191 195.24 195.373 194.729 194.862 194.729 194.862 194.172 194.305 194.339 194.729 193.782 194.172 194.851 195.24 194.339 194.729 194.364 193.689 193.807 193.135 194.876 194.197 194.364 193.689 194.197 193.175 193.689 192.671 193.689 192.671 193.135 192.12 195.739 195.318 195.07 194.649 195.318 194.851 194.649 194.182 194.649 194.182 193.657 193.191 195.07 194.649 194.079 193.657 190.421 189.954 187.807 187.426 187.807 187.426 184.343 184.057 188.144 187.807 184.478 184.343 190.842 190.421 188.144 187.807 196.128 196.262 195.707 195.84 195.707 195.84 195.24 195.373 195.318 195.707 194.851 195.24 195.739 196.128 195.318 195.707 197.3 197.142 196.631 196.473 196.631 196.473 195.639 195.481 196.744 196.631 195.752 195.639 197.413 197.3 196.744 196.631 196.14 195.431 195.764 195.069 196.472 195.748 196.14 195.431 195.748 194.677 195.431 194.376 195.431 194.376 195.069 194.04 194.862 194.744 194.305 194.187 195.373 195.256 194.862 194.744 195.256 194.876 194.744 194.364 194.744 194.364 194.187 193.807 197.705 197.325 197.547 197.167 197.822 197.705 197.664 197.547 197.935 197.818 197.822 197.705 197.818 197.438 197.705 197.325 197.689 197.822 197.531 197.664 197.3 197.689 197.142 197.531 197.413 197.802 197.3 197.689 197.802 197.935 197.689 197.822 195.84 195.723 195.373 195.256 196.262 196.144 195.84 195.723 196.144 195.764 195.723 195.343 195.723 195.343 195.256 194.876 196.852 196.472 196.52 196.14 196.52 196.14 196.144 195.764 196.638 196.52 196.262 196.144 196.969 196.852 196.638 196.52 195.446 195.07 194.454 194.079 195.777 195.446 194.785 194.454 196.447 196.116 195.777 195.446 196.116 195.739 195.446 195.07 196.473 196.27 195.481 195.279 197.142 196.939 196.473 196.27 196.939 196.69 196.27 196.022 196.27 196.022 195.279 195.031 197.142 197.531 196.939 197.328 197.531 197.664 197.328 197.461 197.328 197.461 197.08 197.213 196.939 197.328 196.69 197.08 193.076 192.7 191.219 190.842 193.407 193.076 191.55 191.219 194.785 194.454 193.407 193.076 194.454 194.079 193.076 192.7 197.344 196.964 197.096 196.715 197.461 197.344 197.213 197.096 197.664 197.547 197.461 197.344 197.547 197.167 197.344 196.964 196.573 196.447 195.903 195.777 195.903 195.777 194.912 194.785 196.022 195.903 195.031 194.912 196.69 196.573 196.022 195.903 195.639 195.481 194.26 194.102 194.26 194.102 192.399 192.238 194.374 194.26 192.515 192.399 195.752 195.639 194.374 194.26 197.08 197.213 196.962 197.095 196.962 197.095 196.836 196.969 196.573 196.962 196.447 196.836 196.69 197.08 196.573 196.962 197.213 197.096 197.095 196.978 197.096 196.715 196.978 196.596 196.978 196.596 196.852 196.472 197.095 196.978 196.969 196.852 193.846 193.624 195.302 195.086 194.032 193.846 195.482 195.302 192.055 191.854 194.032 193.846 191.854 191.619 193.846 193.624 196.5 195.482 196.307 195.302 196.307 195.302 196.075 195.086 196.964 196.307 196.715 196.075 197.167 196.5 196.964 196.307 192.399 192.238 189.805 189.579 189.805 189.579 186.376 185.995 189.982 189.805 186.634 186.376 192.515 192.399 189.982 189.805 191.137 190.855 193.183 192.89 190.855 190.545 192.89 192.563 192.89 192.563 194.376 194.04 193.183 192.89 194.677 194.376 194.912 194.785 193.535 193.407 193.535 193.407 191.681 191.55 193.656 193.535 191.804 191.681 195.031 194.912 193.656 193.535 193.901 193.656 192.043 191.804 194.102 193.901 192.238 192.043 195.481 195.279 194.102 193.901 195.279 195.031 193.901 193.656 186.391 186.32 189.846 189.8 186.32 186.209 189.8 189.709 189.8 189.709 192.423 192.347 189.846 189.8 192.457 192.423 183.62 178.945 183.179 178.593 178.945 172.845 178.593 172.552 178.593 172.552 178.129 172.176 183.179 178.593 182.672 178.129 196.715 196.075 196.596 195.918 196.075 195.086 195.918 194.886 195.918 194.886 195.748 194.677 196.596 195.918 196.472 195.748 191.382 191.137 193.413 193.183 193.413 193.183 194.886 194.677 193.624 193.413 195.086 194.886 191.619 191.382 193.624 193.413 179.343 178.957 173.74 173.441 179.659 179.343 173.966 173.74 184.057 183.652 179.659 179.343 183.652 183.187 179.343 178.957 189.368 189.134 192.055 191.854 185.794 185.499 189.368 189.134 185.499 185.204 189.134 188.861 189.134 188.861 191.854 191.619 181.847 175.893 181.724 175.696 181.724 175.696 181.551 175.43 186.32 181.724 186.209 181.551 186.391 181.847 186.32 181.724 164.91 164.69 172.845 172.552 154.61 154.448 164.91 164.69 154.448 154.214 164.69 164.391 164.69 164.391 172.552 172.176 129.745 129.335 108.662 108.344 129.335 129.061 108.344 108.046 166.465 166.253 157.022 156.882 166.612 166.465 157.119 157.022 173.966 173.74 166.612 166.465 173.74 173.441 166.465 166.253 189.709 189.565 192.347 192.218 186.209 186.037 189.709 189.565 186.037 185.794 189.565 189.368 189.565 189.368 192.218 192.055 176.914 176.607 169.656 169.288 169.656 169.288 160.232 159.828 169.968 169.656 160.596 160.232 177.157 176.914 169.968 169.656 179.42 173.197 179.225 173.03 179.225 173.03 178.945 172.845 183.941 179.225 183.62 178.945 184.21 179.42 183.941 179.225 130.657 130.181 109.387 109.041 130.181 129.745 109.041 108.662 128.894 128.827 107.677 107.505 128.827 128.779 107.505 107.323 160.232 159.828 147.97 147.54 147.97 147.54 131.906 131.523 148.355 147.97 132.262 131.906 160.596 160.232 148.355 147.97 144.604 127.066 144.201 126.678 144.201 126.678 143.73 126.245 157.572 144.201 157.136 143.73 157.928 144.604 157.572 144.201 128.779 128.67 107.323 107.121 128.67 128.54 107.121 106.901 144.747 144.638 128.67 128.54 144.806 144.747 128.779 128.67 157.119 157.022 144.806 144.747 157.022 156.882 144.747 144.638 173.982 174.09 166.545 166.649 166.545 166.649 156.948 157.104 166.377 166.545 156.717 156.948 173.871 173.982 166.377 166.545 167.241 166.803 157.672 157.212 174.626 174.176 167.241 166.803 174.176 173.871 166.803 166.377 166.803 166.377 157.212 156.717 167.81 167.241 158.304 157.672 168.359 167.81 158.865 158.304 175.742 175.182 168.359 167.81 175.182 174.626 167.81 167.241 123.709 100.254 123.558 100.009 141.181 123.786 141.205 123.71 141.205 123.71 141.216 123.799 154.663 141.205 154.638 141.216 154.695 141.181 154.663 141.205 131.523 131.093 110.045 109.738 131.093 130.657 109.738 109.387 141.261 123.779 141.219 123.709 154.668 141.261 154.61 141.219 154.638 141.216 154.668 141.261 141.216 123.799 141.261 123.779 155.471 155.041 166.053 165.747 166.053 165.747 174.158 173.904 166.444 166.053 174.535 174.158 155.864 155.471 166.444 166.053 165.091 165.037 173.197 173.03 154.638 154.668 165.091 165.037 154.668 154.61 165.037 164.91 165.037 164.91 173.03 172.845 157.104 157.134 144.804 144.837 157.134 157.119 144.837 144.806 144.837 144.806 128.827 128.779 144.804 144.837 128.894 128.827 191.681 191.55 188.553 188.348 188.553 188.348 184.181 183.863 188.746 188.553 184.482 184.181 191.804 191.681 188.746 188.553 180.173 179.819 174.626 174.176 184.482 184.181 180.173 179.819 184.181 183.863 179.819 179.47 179.819 179.47 174.176 173.871 156.569 143.184 155.864 142.595 157.136 143.73 156.569 143.184 143.73 126.245 143.184 125.743 143.184 125.743 142.595 125.108 147.54 147.089 131.523 131.093 159.828 159.358 147.54 147.089 159.358 158.865 147.089 146.584 147.089 146.584 131.093 130.657 142.049 124.467 141.556 124.128 155.471 142.049 155.041 141.556 155.864 142.595 155.471 142.049 142.595 125.108 142.049 124.467 144.627 144.74 129.061 128.927 156.717 156.948 144.627 144.74 156.948 157.104 144.74 144.804 144.74 144.804 128.927 128.894 165.451 165.293 173.659 173.462 165.747 165.451 173.904 173.659 155.041 154.817 165.747 165.451 154.817 154.695 165.451 165.293 158.865 158.304 146.584 146.063 158.304 157.672 146.063 145.54 146.063 145.54 130.181 129.745 146.584 146.063 130.657 130.181 157.212 156.717 145.077 144.627 145.077 144.627 129.335 129.061 145.54 145.077 129.745 129.335 157.672 157.212 145.54 145.077 154.817 141.257 154.695 141.181 155.041 141.556 154.817 141.257 141.556 124.128 141.257 123.808 141.257 123.808 141.181 123.786 185.794 180.952 185.499 180.643 180.952 174.535 180.643 174.158 180.643 174.158 180.34 173.904 185.499 180.643 185.204 180.34 180.872 180.173 175.182 174.626 181.477 180.872 175.742 175.182 185.995 185.282 181.477 180.872 185.282 184.482 180.872 180.173 183.863 184.234 179.47 179.743 184.234 184.478 179.743 179.891 179.743 179.891 173.982 174.09 179.47 179.743 173.871 173.982 192.043 191.804 189.186 188.746 189.186 188.746 185.282 184.482 189.579 189.186 185.995 185.282 192.238 192.043 189.579 189.186 154.663 154.638 165.197 165.091 165.197 165.091 173.313 173.197 165.293 165.197 173.462 173.313 154.695 154.663 165.293 165.197 179.605 173.313 179.42 173.197 184.451 179.605 184.21 179.42 184.679 179.797 184.451 179.605 179.797 173.462 179.605 173.313 179.855 179.659 174.087 173.966 179.891 179.855 174.09 174.087 184.478 184.343 179.891 179.855 184.343 184.057 179.855 179.659 188.37 188.111 191.137 190.855 184.679 184.451 188.37 188.111 184.451 184.21 188.111 187.829 188.111 187.829 190.855 190.545 186.376 185.995 181.934 181.477 181.934 181.477 176.216 175.742 182.264 181.934 176.607 176.216 186.634 186.376 182.264 181.934 188.269 188.144 184.234 184.478 188.348 188.269 183.863 184.234 191.55 191.219 188.348 188.269 191.219 190.842 188.269 188.144 181.551 175.43 181.286 175.057 181.286 175.057 180.952 174.535 186.037 181.286 185.794 180.952 186.209 181.551 186.037 181.286 167.007 166.444 175.057 174.535 167.47 167.007 175.43 175.057 157.136 156.569 167.47 167.007 156.569 155.864 167.007 166.444 169.288 168.858 159.828 159.358 176.607 176.216 169.288 168.858 176.216 175.742 168.858 168.359 168.858 168.359 159.358 158.865 174.09 174.087 166.649 166.677 174.087 173.966 166.677 166.612 166.677 166.612 157.134 157.119 166.649 166.677 157.104 157.134 185.204 184.954 188.861 18