# vtk DataFile Version 3.0
#This file was generated by the deal.II library on 2020/5/26 at 18:52:29
ASCII
DATASET UNSTRUCTURED_GRID

POINTS 47712 double
0 0 0
0.466667 0 0
0 0.4 0
0.45119 0.4 0
0.466667 0 0
0.933333 0 0
0.45119 0.4 0
0.902381 0.4 0
0.483333 23.6 0
0.966667 23.6 0
0.466667 24 0
0.933333 24 0
0 23.6 0
0.483333 23.6 0
0 24 0
0.466667 24 0
0 23.2 0
0.5 23.2 0
0 23.6 0
0.483333 23.6 0
0.933333 0 0
1.4 0 0
0.902381 0.4 0
1.35357 0.4 0
1.4 0 0
1.86667 0 0
1.35357 0.4 0
1.80476 0.4 0
1.45 23.6 0
1.93333 23.6 0
1.4 24 0
1.86667 24 0
0.966667 23.6 0
1.45 23.6 0
0.933333 24 0
1.4 24 0
1.86667 0 0
2.33333 0 0
1.80476 0.4 0
2.25595 0.4 0
2.33333 0 0
2.8 0 0
2.25595 0.4 0
2.70714 0.4 0
2.41667 23.6 0
2.9 23.6 0
2.33333 24 0
2.8 24 0
1.93333 23.6 0
2.41667 23.6 0
1.86667 24 0
2.33333 24 0
2.8 0 0
3.26667 0 0
2.70714 0.4 0
3.15833 0.4 0
3.26667 0 0
3.73333 0 0
3.15833 0.4 0
3.60952 0.4 0
3.38333 23.6 0
3.86667 23.6 0
3.26667 24 0
3.73333 24 0
2.9 23.6 0
3.38333 23.6 0
2.8 24 0
3.26667 24 0
3.73333 0 0
4.2 0 0
3.60952 0.4 0
4.06071 0.400002 0
4.2 0 0
4.66667 0 0
4.06071 0.400002 0
4.51187 0.400017 0
4.35 23.6 0
4.83333 23.6 0
4.2 24 0
4.66667 24 0
3.86667 23.6 0
4.35 23.6 0
3.73333 24 0
4.2 24 0
4.66667 0 0
5.13333 0 0
4.51187 0.400017 0
4.96274 0.40018 0
5.13333 0 0
5.6 0 0
4.96274 0.40018 0
5.412 0.401188 0
5.31667 23.6 0
5.8 23.6 0
5.13333 24 0
5.6 24 0
4.83333 23.6 0
5.31667 23.6 0
4.66667 24 0
5.13333 24 0
7.7656 0.408656 0
8.08564 0.489853 0
7.625 0.8 0
8 0.8 0
7.37297 0.372717 0
7.7656 0.408656 0
7.25 0.8 0
7.625 0.8 0
7.46667 0 0
7.93333 0 0
7.37297 0.372717 0
7.7656 0.408656 0
7.93333 0 0
8.4 0 0
7.7656 0.408656 0
8.08564 0.489853 0
5.6 0 0
6.06667 0 0
5.412 0.401188 0
5.851 0.407784 0
6.06667 0 0
6.53333 0 0
5.851 0.407784 0
6.22598 0.450874 0
8.4 1.5 0
8.20238 1.40048 0
8.4 1 0
8.21539 0.946782 0
8.4 2 0
8.20022 1.8875 0
8.4 1.5 0
8.20238 1.40048 0
8 1.28696 0
8 0.8 0
8.20238 1.40048 0
8.21539 0.946782 0
8.21496 23.0543 0
8.2025 22.599 0
8.4 23 0
8.4 22.5 0
8 23.2 0
8 22.713 0
8.21496 23.0543 0
8.2025 22.599 0
8 22.2261 0
8.20035 22.1121 0
8 22.713 0
8.2025 22.599 0
8.20035 22.1121 0
8.4 22 0
8.2025 22.599 0
8.4 22.5 0
6.28333 23.6 0
6.76667 23.6 0
6.06667 24 0
6.53333 24 0
5.8 23.6 0
6.28333 23.6 0
5.6 24 0
6.06667 24 0
7.69489 23.5856 0
7.5 23.2 0
8.06391 23.5091 0
8 23.2 0
7.69489 23.5856 0
8.06391 23.5091 0
7.93333 24 0
8.4 24 0
7.23333 23.6 0
7.69489 23.5856 0
7.46667 24 0
7.93333 24 0
7.23333 23.6 0
7 23.2 0
7.69489 23.5856 0
7.5 23.2 0
8.4 2 0
8.4 2.5 0
8.20022 1.8875 0
8.20003 2.3805 0
8.4 2.5 0
8.4 3 0
8.20003 2.3805 0
8.2 2.87391 0
8.20005 21.6194 0
8.4 21.5 0
8.20035 22.1121 0
8.4 22 0
8.2 21.1261 0
8.4 21 0
8.20005 21.6194 0
8.4 21.5 0
8.4 3 0
8.4 3.5 0
8.2 2.87391 0
8.2 3.36739 0
8.4 3.5 0
8.4 4 0
8.2 3.36739 0
8.2 3.86087 0
8.2 20.6326 0
8.4 20.5 0
8.2 21.1261 0
8.4 21 0
8.2 20.1391 0
8.4 20 0
8.2 20.6326 0
8.4 20.5 0
7 0 0
7.46667 0 0
7.00198 0.331094 0
7.37297 0.372717 0
7.00198 0.331094 0
7.37297 0.372717 0
6.94022 0.576588 0
7.25 0.8 0
7.00198 0.331094 0
6.94022 0.576588 0
6.69426 0.367442 0
6.75692 0.535711 0
7 0 0
7.00198 0.331094 0
6.53333 0 0
6.69426 0.367442 0
8.4 4.5 0
8.2 4.35435 0
8.4 4 0
8.2 3.86087 0
8.4 5 0
8.2 4.84783 0
8.4 4.5 0
8.2 4.35435 0
8.2 19.6457 0
8.4 19.5 0
8.2 20.1391 0
8.4 20 0
8.2 19.1522 0
8.4 19 0
8.2 19.6457 0
8.4 19.5 0
8.4 5.5 0
8.2 5.3413 0
8.4 5 0
8.2 4.84783 0
8.4 6 0
8.2 5.83478 0
8.4 5.5 0
8.2 5.3413 0
8.2 18.6587 0
8.4 18.5 0
8.2 19.1522 0
8.4 19 0
8.2 18.1652 0
8.4 18 0
8.2 18.6587 0
8.4 18.5 0
8.4 6 0
8.4 6.5 0
8.2 5.83478 0
8.2 6.32826 0
8.4 6.5 0
8.4 7 0
8.2 6.32826 0
8.2 6.82174 0
8.2 17.6717 0
8.4 17.5 0
8.2 18.1652 0
8.4 18 0
8.2 17.1783 0
8.4 17 0
8.2 17.6717 0
8.4 17.5 0
8.4 7.5 0
8.2 7.31522 0
8.4 7 0
8.2 6.82174 0
8.4 8 0
8.2 7.8087 0
8.4 7.5 0
8.2 7.31522 0
8.2 16.6848 0
8.4 16.5 0
8.2 17.1783 0
8.4 17 0
8.2 16.1913 0
8.4 16 0
8.2 16.6848 0
8.4 16.5 0
8.4 8 0
8.4 8.5 0
8.2 7.8087 0
8.2 8.30217 0
8.4 8.5 0
8.4 9 0
8.2 8.30217 0
8.2 8.79565 0
8.2 15.6978 0
8.4 15.5 0
8.2 16.1913 0
8.4 16 0
8.2 15.2043 0
8.4 15 0
8.2 15.6978 0
8.4 15.5 0
8.4 9 0
8.4 9.5 0
8.2 8.79565 0
8.2 9.28913 0
8.4 9.5 0
8.4 10 0
8.2 9.28913 0
8.2 9.78261 0
8.2 14.7109 0
8.4 14.5 0
8.2 15.2043 0
8.4 15 0
8.2 14.2174 0
8.4 14 0
8.2 14.7109 0
8.4 14.5 0
8.4 10.5 0
8.2 10.2761 0
8.4 10 0
8.2 9.78261 0
8.4 11 0
8.2 10.7696 0
8.4 10.5 0
8.2 10.2761 0
8.2 13.7239 0
8.4 13.5 0
8.2 14.2174 0
8.4 14 0
8.2 13.2304 0
8.4 13 0
8.2 13.7239 0
8.4 13.5 0
8.4 11.5 0
8.2 11.263 0
8.4 11 0
8.2 10.7696 0
8.4 12 0
8.2 11.7565 0
8.4 11.5 0
8.2 11.263 0
8.2 12.737 0
8.4 12.5 0
8.2 13.2304 0
8.4 13 0
8.2 12.2435 0
8.4 12 0
8.2 12.737 0
8.4 12.5 0
6.53333 0 0
6.69426 0.367442 0
6.22598 0.450874 0
6.47056 0.554541 0
6.69426 0.367442 0
6.75692 0.535711 0
6.47056 0.554541 0
6.65423 0.648139 0
6.94022 0.576588 0
6.82768 0.687981 0
6.75692 0.535711 0
6.65423 0.648139 0
7.23333 23.6 0
7 23.7333 0
7 23.2 0
6.76667 23.6 0
7.23333 23.6 0
7.46667 24 0
7 23.7333 0
7 24 0
7 23.7333 0
7 24 0
6.76667 23.6 0
6.53333 24 0
8.4 0 0
8.4 0.5 0
8.08564 0.489853 0
8.24539 0.628305 0
8.4 0.5 0
8.4 1 0
8.24539 0.628305 0
8.21539 0.946782 0
8.08564 0.489853 0
8.24539 0.628305 0
8 0.8 0
8.21539 0.946782 0
8.2 12.2435 0
8.13333 12 0
8.4 12 0
8.2 11.7565 0
8.2409 23.3709 0
8.21496 23.0543 0
8.4 23.5 0
8.4 23 0
8.06391 23.5091 0
8.2409 23.3709 0
8.4 24 0
8.4 23.5 0
8.06391 23.5091 0
8 23.2 0
8.2409 23.3709 0
8.21496 23.0543 0
3.92285 19.2089 0
4.35873 19.2071 0
3.92402 19.6155 0
4.36024 19.6131 0
3.48654 19.2104 0
3.92285 19.2089 0
3.48709 19.6173 0
3.92402 19.6155 0
3.04979 19.2095 0
3.48654 19.2104 0
3.04963 19.6194 0
3.48709 19.6173 0
2.61306 19.209 0
3.04979 19.2095 0
2.61199 19.618 0
3.04963 19.6194 0
2.61227 20.4138 0
3.04975 20.4138 0
2.6132 20.8075 0
3.04985 20.8074 0
3.04975 20.4138 0
3.48707 20.4145 0
3.04985 20.8074 0
3.4864 20.8076 0
3.04974 20.0186 0
3.48724 20.0176 0
3.04975 20.4138 0
3.48707 20.4145 0
2.61181 20.0173 0
3.04974 20.0186 0
2.61227 20.4138 0
3.04975 20.4138 0
2.61199 19.618 0
3.04963 19.6194 0
2.61181 20.0173 0
3.04974 20.0186 0
3.04963 19.6194 0
3.48709 19.6173 0
3.04974 20.0186 0
3.48724 20.0176 0
0.432966 19.604 0
0.866169 19.6083 0
0.432331 20.0047 0
0.865158 20.0094 0
0.432331 20.0047 0
0.865158 20.0094 0
0.431771 20.4049 0
0.864168 20.4095 0
0 20 0
0.432331 20.0047 0
0 20.4 0
0.431771 20.4049 0
0 19.6 0
0.432966 19.604 0
0 20 0
0.432331 20.0047 0
5.23131 20.0079 0
5.66598 20.0043 0
5.23131 20.4073 0
5.66612 20.4043 0
5.23107 19.6073 0
5.66553 19.6034 0
5.23131 20.0079 0
5.66598 20.0043 0
5.66553 19.6034 0
6.1 19.6 0
5.66598 20.0043 0
6.1 20 0
5.66598 20.0043 0
6.1 20 0
5.66612 20.4043 0
6.1 20.4 0
0 20.4 0
0.431771 20.4049 0
0 20.8 0
0.433758 20.8025 0
0.431771 20.4049 0
0.864168 20.4095 0
0.433758 20.8025 0
0.867586 20.8051 0
4.35873 19.2071 0
4.79445 19.2057 0
4.36024 19.6131 0
4.79575 19.61 0
4.79445 19.2057 0
5.22993 19.2041 0
4.79575 19.61 0
5.23107 19.6073 0
5.66501 19.202 0
6.1 19.2 0
5.66553 19.6034 0
6.1 19.6 0
5.22993 19.2041 0
5.66501 19.202 0
5.23107 19.6073 0
5.66553 19.6034 0
0.434142 19.2024 0
0.868611 19.2046 0
0.432966 19.604 0
0.866169 19.6083 0
0 19.2 0
0.434142 19.2024 0
0 19.6 0
0.432966 19.604 0
5.23131 20.4073 0
5.66612 20.4043 0
5.23046 20.8047 0
5.66527 20.8023 0
5.66612 20.4043 0
6.1 20.4 0
5.66527 20.8023 0
6.1 20.8 0
1.30395 19.2062 0
1.73965 19.2079 0
1.30084 19.6116 0
1.73679 19.6143 0
0.868611 19.2046 0
1.30395 19.2062 0
0.866169 19.6083 0
1.30084 19.6116 0
2.17624 19.2085 0
2.61306 19.209 0
2.17407 19.6159 0
2.61199 19.618 0
1.73965 19.2079 0
2.17624 19.2085 0
1.73679 19.6143 0
2.17407 19.6159 0
1.30084 19.6116 0
1.73679 19.6143 0
1.30041 20.0122 0
1.73639 20.0151 0
1.30041 20.0122 0
1.73639 20.0151 0
1.30061 20.4111 0
1.73674 20.4137 0
0.865158 20.0094 0
1.30041 20.0122 0
0.864168 20.4095 0
1.30061 20.4111 0
0.866169 19.6083 0
1.30084 19.6116 0
0.865158 20.0094 0
1.30041 20.0122 0
1.73674 20.4137 0
2.1748 20.413 0
1.73953 20.8074 0
2.17646 20.8072 0
2.1748 20.413 0
2.61227 20.4138 0
2.17646 20.8072 0
2.6132 20.8075 0
1.73679 19.6143 0
2.17407 19.6159 0
1.73639 20.0151 0
2.17416 20.0157 0
2.17407 19.6159 0
2.61199 19.618 0
2.17416 20.0157 0
2.61181 20.0173 0
2.17416 20.0157 0
2.61181 20.0173 0
2.1748 20.413 0
2.61227 20.4138 0
1.73639 20.0151 0
2.17416 20.0157 0
1.73674 20.4137 0
2.1748 20.413 0
4.79646 20.0118 0
5.23131 20.0079 0
4.79621 20.4106 0
5.23131 20.4073 0
4.36112 20.0161 0
4.79646 20.0118 0
4.36052 20.4134 0
4.79621 20.4106 0
4.36024 19.6131 0
4.79575 19.61 0
4.36112 20.0161 0
4.79646 20.0118 0
4.79575 19.61 0
5.23107 19.6073 0
4.79646 20.0118 0
5.23131 20.0079 0
0.864168 20.4095 0
1.30061 20.4111 0
0.867586 20.8051 0
1.30266 20.807 0
1.30061 20.4111 0
1.73674 20.4137 0
1.30266 20.807 0
1.73953 20.8074 0
3.92407 20.4144 0
4.36052 20.4134 0
3.9228 20.8076 0
4.35922 20.808 0
3.48707 20.4145 0
3.92407 20.4144 0
3.4864 20.8076 0
3.9228 20.8076 0
4.36052 20.4134 0
4.79621 20.4106 0
4.35922 20.808 0
4.79509 20.8066 0
4.79621 20.4106 0
5.23131 20.4073 0
4.79509 20.8066 0
5.23046 20.8047 0
3.48724 20.0176 0
3.92475 20.0184 0
3.48707 20.4145 0
3.92407 20.4144 0
3.48709 19.6173 0
3.92402 19.6155 0
3.48724 20.0176 0
3.92475 20.0184 0
3.92402 19.6155 0
4.36024 19.6131 0
3.92475 20.0184 0
4.36112 20.0161 0
3.92475 20.0184 0
4.36112 20.0161 0
3.92407 20.4144 0
4.36052 20.4134 0
4.79286 2.09877 0
5.22857 2.09877 0
4.79286 2.59807 0
5.22857 2.59812 0
4.35714 2.0988 0
4.79286 2.09877 0
4.35714 2.59847 0
4.79286 2.59807 0
0.871429 2.60262 0
1.30714 2.60292 0
0.871429 3.10151 0
1.30714 3.10179 0
1.30714 2.60292 0
1.74286 2.60354 0
1.30714 3.10179 0
1.74286 3.10214 0
1.74286 2.60354 0
2.17857 2.6027 0
1.74286 3.10214 0
2.17857 3.10173 0
2.17857 2.6027 0
2.61429 2.60225 0
2.17857 3.10173 0
2.61429 3.10135 0
3.92143 2.09935 0
4.35714 2.0988 0
3.92143 2.59917 0
4.35714 2.59847 0
3.48571 2.09988 0
3.92143 2.09935 0
3.48571 2.59986 0
3.92143 2.59917 0
1.30714 2.10266 0
1.74286 2.10236 0
1.30714 2.60292 0
1.74286 2.60354 0
0.871429 2.10181 0
1.30714 2.10266 0
[...]
POINT_DATA 47712
SCALARS solution double 1
LOOKUP_TABLE default
8.96214 8.72352 8.94929 8.70507 8.72352 8.32757 8.70507 8.35269 2.26143 2.24815 2.2587 2.24106 2.266 2.26143 2.2692 2.2587 2.26805 2.27069 2.266 2.26143 8.32757 7.89163 8.35269 7.95619 7.89163 7.44686 7.95619 7.54244 2.22693 2.19928 2.21718 2.18827 2.24815 2.22693 2.24106 2.21718 7.44686 7.00684 7.54244 7.12627 7.00684 6.57899 7.12627 6.71667 2.16671 2.13047 2.15548 2.11974 2.19928 2.16671 2.18827 2.15548 6.57899 6.16747 6.71667 6.31911 6.16747 5.77451 6.31911 5.93679 2.09147 2.05039 2.08176 2.04206 2.13047 2.09147 2.11974 2.08176 5.77451 5.40112 5.93679 5.57146 5.40112 5.0475 5.57146 5.22392 2.00768 1.96369 2.00103 1.95901 2.05039 2.00768 2.04206 2.00103 5.0475 4.7132 5.22392 4.89464 4.7132 4.39675 4.89464 4.58473 1.91874 1.87321 1.91634 1.87344 1.96369 1.91874 1.95901 1.91634 3.17524 3.01812 3.2472 2.98328 3.37621 3.17524 3.46574 3.2472 3.29857 3.10549 3.37621 3.17524 3.10549 2.96617 3.17524 3.01812 4.39675 4.0943 4.58473 4.30077 4.0943 3.80355 4.30077 4.07578 2.77729 2.80009 2.80037 2.85917 2.80151 2.8081 2.77729 2.80009 2.82274 2.98328 2.80009 2.85917 1.65321 1.64107 1.64649 1.63385 1.67025 1.64732 1.65321 1.64107 1.6417 1.6351 1.64732 1.64107 1.6351 1.62669 1.64107 1.63385 1.82763 1.78278 1.83088 1.78938 1.87321 1.82763 1.87344 1.83088 1.70207 1.72331 1.67366 1.67025 1.70207 1.67366 1.68072 1.65205 1.741 1.70207 1.71317 1.68072 1.741 1.77207 1.70207 1.72331 2.80151 2.84064 2.8081 2.84303 2.84064 2.88224 2.84303 2.88522 1.63528 1.62578 1.6351 1.62669 1.64079 1.63039 1.63528 1.62578 2.88224 2.9209 2.88522 2.92704 2.9209 2.95313 2.92704 2.9645 1.65072 1.63964 1.64079 1.63039 1.66485 1.65326 1.65072 1.63964 3.53442 3.29857 3.5783 3.37621 3.5783 3.37621 3.63944 3.46574 3.5783 3.63944 3.76711 3.7498 3.53442 3.5783 3.80355 3.76711 2.97632 2.99446 2.95313 2.9645 2.98912 3.01469 2.97632 2.99446 1.68409 1.67205 1.66485 1.65326 1.71017 1.69759 1.68409 1.67205 2.99154 3.02431 2.98912 3.01469 2.9845 3.02375 2.99154 3.02431 1.74466 1.73138 1.71017 1.69759 1.78798 1.77389 1.74466 1.73138 2.9845 2.96931 3.02375 3.01415 2.96931 2.94725 3.01415 2.99684 1.83916 1.82428 1.78798 1.77389 1.89645 1.88088 1.83916 1.82428 2.91946 2.97306 2.94725 2.99684 2.88684 2.94388 2.91946 2.97306 1.95799 1.94188 1.89645 1.88088 2.02219 2.00565 1.95799 1.94188 2.88684 2.85011 2.94388 2.91012 2.85011 2.8098 2.91012 2.87244 2.08778 2.07089 2.02219 2.00565 2.1538 2.1366 2.08778 2.07089 2.8098 2.76633 2.87244 2.83133 2.76633 2.71998 2.83133 2.78716 2.21951 2.20202 2.1538 2.1366 2.28437 2.2666 2.21951 2.20202 2.671 2.7402 2.71998 2.78716 2.61955 2.69067 2.671 2.7402 2.348 2.32993 2.28437 2.2666 2.41009 2.39172 2.348 2.32993 2.56577 2.63872 2.61955 2.69067 2.50978 2.58449 2.56577 2.63872 2.47043 2.45172 2.41009 2.39172 2.52885 2.50978 2.47043 2.45172 3.80355 3.76711 4.07578 3.93936 3.76711 3.7498 3.93936 3.82998 3.63944 3.7193 3.7498 3.82998 1.741 1.7579 1.77207 1.78278 1.741 1.71317 1.7579 1.7498 1.7579 1.7498 1.78278 1.78938 2.96617 2.89654 3.01812 2.92773 2.89654 2.80037 2.92773 2.85917 3.01812 2.92773 2.98328 2.85917 2.52885 2.57272 2.50978 2.58449 1.66093 1.65321 1.65404 1.64649 1.67366 1.66093 1.65205 1.65404 1.67366 1.67025 1.66093 1.65321 60.7619 60.9253 60.1461 60.2266 60.6165 60.7619 60.0598 60.1461 60.4885 60.6165 59.9688 60.0598 60.3728 60.4885 59.8812 59.9688 58.4131 58.485 57.59 57.6756 58.485 58.5319 57.6756 57.7241 59.2737 59.3348 58.485 58.5319 59.2035 59.2737 58.4131 58.485 59.8812 59.9688 59.2035 59.2737 59.9688 60.0598 59.2737 59.3348 59.4637 59.5402 58.7477 58.8418 58.7477 58.8418 57.8323 57.957 58.6538 58.7477 57.7122 57.8323 59.3902 59.4637 58.6538 58.7477 59.4072 59.367 58.4783 58.4012 60.3487 60.3742 59.4072 59.367 60.3742 60.358 59.367 59.2983 59.367 59.2983 58.4012 58.3027 57.7122 57.8323 56.5056 56.6944 57.8323 57.957 56.6944 56.9087 60.9253 61.1076 60.2266 60.2973 61.1076 61.3058 60.2973 60.3487 61.5026 61.6513 60.3742 60.358 61.3058 61.5026 60.3487 60.3742 59.9555 60.0175 59.4637 59.5402 59.9043 59.9555 59.3902 59.4637 58.4783 58.4012 57.5569 57.4324 58.4012 58.3027 57.4324 57.2844 60.0907 60.174 59.6212 59.7059 60.0175 60.0907 59.5402 59.6212 60.2682 60.3728 59.7937 59.8812 60.174 60.2682 59.7059 59.7937 59.6212 59.7059 58.9385 59.0314 58.9385 59.0314 58.0881 58.2079 58.8418 58.9385 57.957 58.0881 59.5402 59.6212 58.8418 58.9385 58.2079 58.3214 57.3105 57.4687 58.3214 58.4131 57.4687 57.59 59.7059 59.7937 59.0314 59.1228 59.7937 59.8812 59.1228 59.2035 59.1228 59.2035 58.3214 58.4131 59.0314 59.1228 58.2079 58.3214 59.4188 59.4072 58.5288 58.4783 59.4061 59.4188 58.5533 58.5288 60.2266 60.2973 59.4061 59.4188 60.2973 60.3487 59.4188 59.4072 57.957 58.0881 56.9087 57.1198 58.0881 58.2079 57.1198 57.3105 58.5549 58.5533 57.7362 57.7103 58.5319 58.5549 57.7241 57.7362 58.5533 58.5288 57.7103 57.6509 58.5288 58.4783 57.6509 57.5569 59.3348 59.3765 58.5319 58.5549 60.0598 60.1461 59.3348 59.3765 60.1461 60.2266 59.3765 59.4061 59.3765 59.4061 58.5549 58.5533 46.9391 46.7485 48.6167 48.5665 47.1159 46.9391 48.6645 48.6167 49.1023 49.0386 49.7092 49.6877 49.0386 48.9786 49.6877 49.6745 48.9786 48.9193 49.6745 49.6709 48.9193 48.8641 49.6709 49.6802 47.278 47.1159 48.7117 48.6645 47.4252 47.278 48.7596 48.7117 48.0413 47.9266 49.0386 48.9786 48.1514 48.0413 49.1023 49.0386 48.6645 48.6167 49.9054 50.0212 48.6167 48.5665 50.0212 50.155 47.8099 47.6898 48.9193 48.8641 47.9266 47.8099 48.9786 48.9193 48.7596 48.7117 49.7486 49.8146 48.7117 48.6645 49.8146 49.9054 48.5665 48.5124 50.155 50.2889 48.5124 48.4484 50.2889 50.3906 46.5557 46.3768 48.5124 48.4484 46.7485 46.5557 48.5665 48.5124 49.2351 49.1671 49.769 49.7366 49.1671 49.1023 49.7366 49.7092 48.2584 48.1514 49.1671 49.1023 48.3615 48.2584 49.2351 49.1671 48.8641 48.8103 49.6802 49.705 48.8103 48.7596 49.705 49.7486 47.5613 47.4252 48.8103 48.7596 47.6898 47.5613 48.8641 48.8103 129.134 129.002 108.22 108.039 129.002 128.971 108.039 107.868 195.827 195.759 194.449 194.381 194.449 194.381 192.592 192.524 194.471 194.449 192.614 192.592 195.849 195.827 194.471 194.449 189.82 189.335 191.77 191.274 191.77 191.274 193.2 192.696 187.183 186.726 189.82 189.335 183.692 183.251 187.183 186.726 154.822 141.496 154.658 141.363 141.496 124.069 141.363 123.918 196.783 195.771 196.672 195.658 196.672 195.658 196.519 195.507 197.34 196.672 197.182 196.519 197.452 196.783 197.34 196.672 158.14 157.785 168.269 167.989 157.785 157.351 167.989 167.635 167.989 167.635 175.821 175.556 168.269 167.989 176.017 175.821 187.436 186.955 184.071 183.666 189.963 189.452 187.436 186.955 192.465 192.39 194.413 194.341 194.413 194.341 195.84 195.771 194.441 194.413 195.865 195.84 192.499 192.465 194.441 194.413 186.918 186.81 182.692 182.52 186.81 186.647 182.52 182.282 182.52 182.282 176.937 176.631 182.692 182.52 177.181 176.937 193.664 193.198 192.287 191.82 192.287 191.82 190.43 189.963 192.708 192.287 190.851 190.43 194.086 193.664 192.708 192.287 187.561 187.183 190.225 189.82 187.885 187.561 190.587 190.225 184.284 184.015 187.885 187.561 184.015 183.692 187.561 187.183 197.51 197.487 196.84 196.818 197.487 197.42 196.818 196.75 196.818 196.75 195.827 195.759 196.84 196.818 195.849 195.827 197.51 197.9 197.487 197.877 197.9 198.035 197.877 198.012 197.877 198.012 197.81 197.944 197.487 197.877 197.42 197.81 191.82 191.308 189.963 189.452 193.198 192.686 191.82 191.308 194.189 193.677 193.198 192.686 194.858 194.346 194.189 193.677 190.095 189.993 186.81 186.647 190.151 190.095 186.918 186.81 192.614 192.592 190.151 190.095 192.592 192.524 190.095 189.993 192.205 191.77 193.655 193.2 192.595 192.205 194.065 193.655 190.587 190.225 192.595 192.205 190.225 189.82 192.205 191.77 196.875 195.865 196.851 195.84 196.851 195.84 196.783 195.771 197.52 196.851 197.452 196.783 197.543 196.875 197.52 196.851 198.035 197.919 198.012 197.897 197.919 197.543 197.897 197.52 197.897 197.52 197.829 197.452 198.012 197.897 197.944 197.829 196.122 196.513 195.746 196.136 196.454 196.844 196.122 196.513 196.844 196.979 196.513 196.647 196.513 196.647 196.136 196.271 195.088 194.065 194.677 193.655 194.677 193.655 194.216 193.2 195.357 194.677 194.891 194.216 195.779 195.088 195.357 194.677 192.261 192.097 194.223 194.065 194.223 194.065 195.658 195.507 194.341 194.223 195.771 195.658 192.39 192.261 194.341 194.223 195.248 195.383 194.736 194.871 194.858 195.248 194.346 194.736 194.891 194.216 194.379 193.708 194.216 193.2 193.708 192.696 195.746 195.325 195.077 194.655 195.325 194.858 194.655 194.189 194.655 194.189 193.664 193.198 195.077 194.655 194.086 193.664 190.43 189.963 187.818 187.436 187.818 187.436 184.357 184.071 188.155 187.818 184.492 184.357 190.851 190.43 188.155 187.818 196.136 196.271 195.715 195.849 195.715 195.849 195.248 195.383 195.325 195.715 194.858 195.248 195.746 196.136 195.325 195.715 197.307 197.149 196.637 196.479 196.637 196.479 195.646 195.488 196.75 196.637 195.759 195.646 197.42 197.307 196.75 196.637 196.155 195.45 195.779 195.088 196.486 195.767 196.155 195.45 195.767 194.702 195.45 194.401 195.45 194.401 195.088 194.065 195.383 195.267 194.871 194.756 195.267 194.891 194.756 194.379 197.716 197.34 197.559 197.182 197.832 197.716 197.674 197.559 197.944 197.829 197.832 197.716 197.829 197.452 197.716 197.34 197.697 197.832 197.539 197.674 197.307 197.697 197.149 197.539 197.42 197.81 197.307 197.697 197.81 197.944 197.697 197.832 195.849 195.734 195.383 195.267 196.271 196.156 195.849 195.734 196.156 195.779 195.734 195.357 195.734 195.357 195.267 194.891 196.863 196.486 196.532 196.155 196.532 196.155 196.156 195.779 196.647 196.532 196.271 196.156 196.979 196.863 196.647 196.532 195.453 195.077 194.461 194.086 195.784 195.453 194.792 194.461 196.454 196.122 195.784 195.453 196.122 195.746 195.453 195.077 196.479 196.276 195.488 195.286 197.149 196.946 196.479 196.276 196.946 196.697 196.276 196.028 196.276 196.028 195.286 195.038 197.149 197.539 196.946 197.336 197.539 197.674 197.336 197.471 197.336 197.471 197.088 197.223 196.946 197.336 196.697 197.088 193.084 192.708 191.228 190.851 193.415 193.084 191.559 191.228 194.792 194.461 193.415 193.084 194.461 194.086 193.084 192.708 197.356 196.978 197.107 196.73 197.471 197.356 197.223 197.107 197.674 197.559 197.471 197.356 197.559 197.182 197.356 196.978 196.58 196.454 195.91 195.784 195.91 195.784 194.919 194.792 196.028 195.91 195.038 194.919 196.697 196.58 196.028 195.91 195.646 195.488 194.267 194.109 194.267 194.109 192.408 192.247 194.381 194.267 192.524 192.408 195.759 195.646 194.381 194.267 197.088 197.223 196.97 197.105 196.97 197.105 196.844 196.979 196.58 196.97 196.454 196.844 196.697 197.088 196.58 196.97 197.223 197.107 197.105 196.989 197.107 196.73 196.989 196.611 196.989 196.611 196.863 196.486 197.105 196.989 196.979 196.863 193.879 193.657 195.327 195.111 194.065 193.879 195.507 195.327 192.097 191.897 194.065 193.879 191.897 191.662 193.879 193.657 196.519 195.507 196.326 195.327 196.326 195.327 196.094 195.111 196.978 196.326 196.73 196.094 197.182 196.519 196.978 196.326 192.408 192.247 189.816 189.59 189.816 189.59 186.39 186.009 189.993 189.816 186.647 186.39 192.524 192.408 189.993 189.816 191.18 190.898 193.216 192.923 190.898 190.587 192.923 192.595 192.923 192.595 194.401 194.065 193.216 192.923 194.702 194.401 194.919 194.792 193.543 193.415 193.543 193.415 191.69 191.559 193.664 193.543 191.813 191.69 195.038 194.919 193.664 193.543 193.909 193.664 192.052 191.813 194.109 193.909 192.247 192.052 195.488 195.286 194.109 193.909 195.286 195.038 193.909 193.664 186.463 186.393 189.902 189.856 186.393 186.282 189.856 189.765 189.856 189.765 192.465 192.39 189.902 189.856 192.499 192.465 183.692 179.04 183.251 178.687 179.04 172.969 178.687 172.675 196.73 196.094 196.611 195.937 196.094 195.111 195.937 194.911 195.937 194.911 195.767 194.702 196.611 195.937 196.486 195.767 191.425 191.18 193.446 193.216 193.446 193.216 194.911 194.702 193.657 193.446 195.111 194.911 191.662 191.425 193.657 193.446 179.677 179.361 173.989 173.763 184.071 183.666 179.677 179.361 189.425 189.19 192.097 191.897 185.868 185.574 189.425 189.19 185.574 185.279 189.19 188.918 189.19 188.918 191.897 191.662 181.942 176.017 181.82 175.821 181.82 175.821 181.647 175.556 186.393 181.82 186.282 181.647 186.463 181.942 186.393 181.82 165.073 164.851 172.969 172.675 154.822 154.658 165.073 164.851 129.815 129.407 108.83 108.514 129.407 129.134 108.514 108.22 166.643 166.496 157.16 157.063 173.989 173.763 166.643 166.496 189.765 189.621 192.39 192.261 186.282 186.11 189.765 189.621 186.11 185.868 189.621 189.425 189.621 189.425 192.261 192.097 176.937 176.631 169.687 169.319 169.687 169.319 160.273 159.87 169.998 169.687 160.637 160.273 177.181 176.937 169.998 169.687 179.517 173.325 179.322 173.156 179.322 173.156 179.04 172.969 184.015 179.322 183.692 179.04 184.284 179.517 184.015 179.322 130.728 130.252 109.559 109.211 130.252 129.815 109.211 108.83 128.971 128.907 107.868 107.705 128.907 128.862 107.705 107.529 160.273 159.87 148.024 147.595 148.024 147.595 131.979 131.596 148.409 148.024 132.336 131.979 160.637 160.273 148.409 148.024 144.88 127.428 144.48 127.041 144.48 127.041 144.011 126.61 157.785 144.48 157.351 144.011 158.14 144.88 157.785 144.48 128.862 128.756 107.529 107.327 144.863 144.803 128.862 128.756 157.16 157.063 144.863 144.803 174.007 174.114 166.577 166.681 166.577 166.681 156.991 157.146 166.41 166.577 156.76 156.991 173.896 174.007 166.41 166.577 167.273 166.835 157.715 157.255 174.651 174.202 167.273 166.835 174.202 173.896 166.835 166.41 166.835 166.41 157.255 156.76 167.843 167.273 158.346 157.715 168.391 167.843 158.908 158.346 175.766 175.206 168.391 167.843 175.206 174.651 167.843 167.273 124.069 100.819 123.918 100.581 141.469 124.155 141.49 124.077 141.49 124.077 141.499 124.163 154.882 141.49 154.855 141.499 154.916 141.469 154.882 141.49 131.596 131.164 110.233 109.917 131.164 130.728 109.917 109.559 141.541 124.14 141.496 124.069 154.883 141.541 154.822 141.496 154.855 141.499 154.883 141.541 141.499 124.163 141.541 124.14 155.692 155.263 166.222 165.917 166.222 165.917 174.288 174.034 166.612 166.222 174.664 174.288 156.084 155.692 166.612 166.222 165.258 165.202 173.325 173.156 154.855 154.883 165.258 165.202 154.883 154.822 165.202 165.073 165.202 165.073 173.156 172.969 157.146 157.176 144.861 144.893 157.176 157.16 144.893 144.863 144.893 144.863 128.907 128.862 144.861 144.893 128.971 128.907 191.69 191.559 188.564 188.359 188.564 188.359 184.196 183.879 188.757 188.564 184.497 184.196 191.813 191.69 188.757 188.564 180.193 179.838 174.651 174.202 184.497 184.196 180.193 179.838 184.196 183.879 179.838 179.49 179.838 179.49 174.202 173.896 156.787 143.467 156.084 142.881 157.351 144.011 156.787 143.467 144.011 126.61 143.467 126.11 143.467 126.11 142.881 125.477 147.595 147.144 131.596 131.164 159.87 159.4 147.595 147.144 159.4 158.908 147.144 146.639 147.144 146.639 131.164 130.728 142.336 124.838 141.845 124.5 155.692 142.336 155.263 141.845 156.084 142.881 155.692 142.336 142.881 125.477 142.336 124.838 144.685 144.797 129.134 129.002 156.76 156.991 144.685 144.797 156.991 157.146 144.797 144.861 144.797 144.861 129.002 128.971 165.621 165.463 173.789 173.591 165.917 165.621 174.034 173.789 155.263 155.039 165.917 165.621 155.039 154.916 165.621 165.463 158.908 158.346 146.639 146.12 158.346 157.715 146.12 145.597 146.12 145.597 130.252 129.815 146.639 146.12 130.728 130.252 157.255 156.76 145.134 144.685 145.134 144.685 129.407 129.134 145.597 145.134 129.815 129.407 157.715 157.255 145.597 145.134 155.039 141.547 154.916 141.469 155.263 141.845 155.039 141.547 141.845 124.5 141.547 124.179 141.547 124.179 141.469 124.155 185.868 181.05 185.574 180.741 181.05 174.664 180.741 174.288 180.741 174.288 180.438 174.034 185.574 180.741 185.279 180.438 180.891 180.193 175.206 174.651 181.495 180.891 175.766 175.206 186.009 185.297 181.495 180.891 185.297 184.497 180.891 180.193 183.879 184.248 179.49 179.762 184.248 184.492 179.762 179.91 179.762 179.91 174.007 174.114 179.49 179.762 173.896 174.007 192.052 191.813 189.197 188.757 189.197 188.757 185.297 184.497 189.59 189.197 186.009 185.297 192.247 192.052 189.59 189.197 154.882 154.855 165.365 165.258 165.365 165.258 173.442 173.325 165.463 165.365 173.591 173.442 154.916 154.882 165.463 165.365 179.704 173.442 179.517 173.325 184.525 179.704 184.284 179.517 184.754 179.897 184.525 179.704 179.897 173.591 179.704 173.442 179.873 179.677 174.111 173.989 179.91 179.873 174.114 174.111 184.492 184.357 179.91 179.873 184.357 184.071 179.873 179.677 188.427 188.168 191.18 190.898 184.754 184.525 188.427 188.168 184.525 184.284 188.168 187.885 188.168 187.885 190.898 190.587 186.39 186.009 181.952 181.495 181.952 181.495 176.24 175.766 182.282 181.952 176.631 176.24 186.647 186.39 182.282 181.952 188.28 188.155 184.248 184.492 188.359 188.28 183.879 184.248 191.559 191.228 188.359 188.28 191.228 190.851 188.28 188.155 181.647 175.556 181.383 175.184 181.383 175.184 181.05 174.664 186.11 181.383 185.868 181.05 186.282 181.647 186.11 181.383 167.174 166.612 175.184 174.664 167.635 167.174 175.556 175.184 157.351 156.787 167.635 167.174 156.787 156.084 167.174 166.612 169.319 168.889 159.87 159.4 176.631 176.24 169.319 168.889 176.24 175.766 168.889 168.391 168.889 168.391 159.4 158.908 174.114 174.111 166.681 166.709 174.111 173.989 166.709 166.643 166.709 166.643 157.176 157.16 166.681 166.709 157.146 157.176 185.279 185.029 188.918 188.687 185.029 184.754 188.687 188.427 188.687 188.427 191.425 191.18 188.918 188.687 191.662 191.425 185.029 180.174 184.754 179.897 185.279 180.438 185.029 180.174 180.438 174.034 180.174 173.789 180.174 173.789 179.897 173.591 48.4484 47.6851 50.3906 51.9837 46.3768 44.4783 48.4484 47.6851 58.3027 56.6514 57.2844 54.9416 60.358 60.5167 59.2983 58.2016 59.2983 58.2016 58.3027 56.6514 62.3528 65.8857 60.5167 61.6213 61.6513 62.3528 60.358 60.5167 62.1881 116.967 60.6298 114.07 60.6298 114.07 58.5694 110.258 63.3573 64.2247 119.15 120.773 62.1881 63.3573 116.967 119.15 51.6909 84.2073 45.0751 70.7525 45.0751 70.7525 37.5529 55.6765 63.7722 62.8446 120.421 118.756 64.4741 63.7722 121.665 120.421 64.9968 64.4741 122.578 121.665 65.3738 64.9968 123.218 122.578 47.5816 40.64 73.1677 59.5267 40.64 34.75 59.5267 49.7348 58.3724 53.785 95.4677 85.8987 53.785 47.5816 85.8987 73.1677 59.9516 57.9349 113.651 109.913 57.9349 55.3047 109.913 105.028 53.1861 93.0637 51.6909 84.2073 52.2618 99.6588 53.1861 93.0637 65.5468 123.39 65.2063 122.787 65.762 123.763 65.5468 123.39 65.7714 123.887 65.762 123.763 65.6788 123.824 65.7714 123.887 62.8446 61.5826 118.756 116.549 61.5826 59.9516 116.549 113.651 55.3047 57.8201 105.028 101.614 57.8201 58.3724 101.614 95.4677 65.5805 123.623 65.6788 123.824 65.3738 123.218 65.5805 123.623 34.75 31.0247 49.7348 44.802 31.0247 28.9014 44.802 42.1017 52.2618 55.8212 99.6588 105.374 55.8212 58.5694 105.374 110.258 64.2247 64.8093 120.773 121.954 64.8093 65.2063 121.954 122.787 1.72331 4.7874 1.67025 1.64732 1.77207 7.65966 1.72331 4.7874 14.5787 7.68946 7.65966 4.7874 7.68946 1.6417 4.7874 1.64732 51.6909 45.0751 26.7988 24.0349 45.0751 37.5529 24.0349 20.5518 52.2618 53.1861 27.6154 27.9562 53.1861 51.6909 27.9562 26.7988 55.8212 29.4 58.5694 30.7699 52.2618 27.6154 55.8212 29.4 43.792 44.2962 31.0717 29.8328 43.5287 43.792 30.4054 31.0717 44.8145 44.6021 32.5864 31.9104 44.255 44.8145 31.7441 32.5864 62.1881 60.6298 32.5769 31.804 60.6298 58.5694 31.804 30.7699 63.3573 33.1494 64.2247 33.5621 62.1881 32.5769 63.3573 33.1494 64.8093 33.8447 65.2063 34.0388 64.2247 33.5621 64.8093 33.8447 65.762 65.5468 34.2397 34.1717 65.5468 65.2063 34.1717 34.0388 65.6788 65.7714 34.1765 34.2345 65.7714 65.762 34.2345 34.2397 65.3738 65.5805 33.9397 34.0834 65.5805 65.6788 34.0834 34.1765 44.0347 43.5287 30.882 30.4054 44.6021 44.0347 31.9104 30.882 43.4884 44.255 30.3272 31.7441 42.5955 43.4884 29.0205 30.3272 64.9968 33.7244 64.4741 33.4282 65.3738 33