# vtk DataFile Version 3.0
#This file was generated by the deal.II library on 2020/5/26 at 18:52:08
ASCII
DATASET UNSTRUCTURED_GRID

POINTS 7260 double
0.45119 0.4 0
0.902381 0.4 0
0.435714 0.8 0
0.871429 0.8 0
0 0.4 0
0.45119 0.4 0
0 0.8 0
0.435714 0.8 0
0 0 0
0.466667 0 0
0 0.4 0
0.45119 0.4 0
0.466667 0 0
0.933333 0 0
0.45119 0.4 0
0.902381 0.4 0
0.483333 23.6 0
0.966667 23.6 0
0.466667 24 0
0.933333 24 0
0 23.6 0
0.483333 23.6 0
0 24 0
0.466667 24 0
0 23.2 0
0.5 23.2 0
0 23.6 0
0.483333 23.6 0
0.5 23.2 0
1 23.2 0
0.483333 23.6 0
0.966667 23.6 0
1.35357 0.4 0
1.80476 0.4 0
1.30714 0.8 0
1.74286 0.8 0
0.902381 0.4 0
1.35357 0.4 0
0.871429 0.8 0
1.30714 0.8 0
0.933333 0 0
1.4 0 0
0.902381 0.4 0
1.35357 0.4 0
1.4 0 0
1.86667 0 0
1.35357 0.4 0
1.80476 0.4 0
1.45 23.6 0
1.93333 23.6 0
1.4 24 0
1.86667 24 0
0.966667 23.6 0
1.45 23.6 0
0.933333 24 0
1.4 24 0
1 23.2 0
1.5 23.2 0
0.966667 23.6 0
1.45 23.6 0
1.5 23.2 0
2 23.2 0
1.45 23.6 0
1.93333 23.6 0
2.25595 0.4 0
2.70714 0.4 0
2.17857 0.8 0
2.61429 0.8 0
1.80476 0.4 0
2.25595 0.4 0
1.74286 0.8 0
2.17857 0.8 0
1.86667 0 0
2.33333 0 0
1.80476 0.4 0
2.25595 0.4 0
2.33333 0 0
2.8 0 0
2.25595 0.4 0
2.70714 0.4 0
2.41667 23.6 0
2.9 23.6 0
2.33333 24 0
2.8 24 0
1.93333 23.6 0
2.41667 23.6 0
1.86667 24 0
2.33333 24 0
2 23.2 0
2.5 23.2 0
1.93333 23.6 0
2.41667 23.6 0
2.5 23.2 0
3 23.2 0
2.41667 23.6 0
2.9 23.6 0
3.15833 0.4 0
3.60952 0.4 0
3.05 0.8 0
3.48571 0.8 0
2.70714 0.4 0
3.15833 0.4 0
2.61429 0.8 0
3.05 0.8 0
2.8 0 0
3.26667 0 0
2.70714 0.4 0
3.15833 0.4 0
3.26667 0 0
3.73333 0 0
3.15833 0.4 0
3.60952 0.4 0
3.38333 23.6 0
3.86667 23.6 0
3.26667 24 0
3.73333 24 0
2.9 23.6 0
3.38333 23.6 0
2.8 24 0
3.26667 24 0
3 23.2 0
3.5 23.2 0
2.9 23.6 0
3.38333 23.6 0
3.5 23.2 0
4 23.2 0
3.38333 23.6 0
3.86667 23.6 0
4.06071 0.400002 0
4.51187 0.400017 0
3.92143 0.8 0
4.35714 0.8 0
3.60952 0.4 0
4.06071 0.400002 0
3.48571 0.8 0
3.92143 0.8 0
3.73333 0 0
4.2 0 0
3.60952 0.4 0
4.06071 0.400002 0
4.2 0 0
4.66667 0 0
4.06071 0.400002 0
4.51187 0.400017 0
4.35 23.6 0
4.83333 23.6 0
4.2 24 0
4.66667 24 0
3.86667 23.6 0
4.35 23.6 0
3.73333 24 0
4.2 24 0
4 23.2 0
4.5 23.2 0
3.86667 23.6 0
4.35 23.6 0
4.5 23.2 0
5 23.2 0
4.35 23.6 0
4.83333 23.6 0
4.96274 0.40018 0
5.412 0.401188 0
4.79286 0.8 0
5.22857 0.8 0
4.51187 0.400017 0
4.96274 0.40018 0
4.35714 0.8 0
4.79286 0.8 0
4.66667 0 0
5.13333 0 0
4.51187 0.400017 0
4.96274 0.40018 0
5.13333 0 0
5.6 0 0
4.96274 0.40018 0
5.412 0.401188 0
5.31667 23.6 0
5.8 23.6 0
5.13333 24 0
5.6 24 0
4.83333 23.6 0
5.31667 23.6 0
4.66667 24 0
5.13333 24 0
5 23.2 0
5.5 23.2 0
4.83333 23.6 0
5.31667 23.6 0
5.5 23.2 0
6 23.2 0
5.31667 23.6 0
5.8 23.6 0
7.7656 0.408656 0
8.08564 0.489853 0
7.625 0.8 0
8 0.8 0
7.37297 0.372717 0
7.7656 0.408656 0
7.25 0.8 0
7.625 0.8 0
7.46667 0 0
7.93333 0 0
7.37297 0.372717 0
7.7656 0.408656 0
7.93333 0 0
8.4 0 0
7.7656 0.408656 0
8.08564 0.489853 0
5.851 0.407784 0
6.22598 0.450874 0
5.66429 0.8 0
6.1 0.8 0
5.412 0.401188 0
5.851 0.407784 0
5.22857 0.8 0
5.66429 0.8 0
5.6 0 0
6.06667 0 0
5.412 0.401188 0
5.851 0.407784 0
6.06667 0 0
6.53333 0 0
5.851 0.407784 0
6.22598 0.450874 0
8.4 1.5 0
8.20238 1.40048 0
8.4 1 0
8.21539 0.946782 0
8.4 2 0
8.20022 1.8875 0
8.4 1.5 0
8.20238 1.40048 0
8 1.77391 0
8 1.28696 0
8.20022 1.8875 0
8.20238 1.40048 0
8 1.28696 0
8 0.8 0
8.20238 1.40048 0
8.21539 0.946782 0
8.21496 23.0543 0
8.2025 22.599 0
8.4 23 0
8.4 22.5 0
8 23.2 0
8 22.713 0
8.21496 23.0543 0
8.2025 22.599 0
8 22.2261 0
8.20035 22.1121 0
8 22.713 0
8.2025 22.599 0
8.20035 22.1121 0
8.4 22 0
8.2025 22.599 0
8.4 22.5 0
6.28333 23.6 0
6.76667 23.6 0
6.06667 24 0
6.53333 24 0
5.8 23.6 0
6.28333 23.6 0
5.6 24 0
6.06667 24 0
6 23.2 0
6.5 23.2 0
5.8 23.6 0
6.28333 23.6 0
6.5 23.2 0
7 23.2 0
6.28333 23.6 0
6.76667 23.6 0
7.69489 23.5856 0
7.5 23.2 0
8.06391 23.5091 0
8 23.2 0
7.69489 23.5856 0
8.06391 23.5091 0
7.93333 24 0
8.4 24 0
7.23333 23.6 0
7.69489 23.5856 0
7.46667 24 0
7.93333 24 0
7.23333 23.6 0
7 23.2 0
7.69489 23.5856 0
7.5 23.2 0
8 2.26087 0
8.20003 2.3805 0
8 2.74783 0
8.2 2.87391 0
8 1.77391 0
8.20022 1.8875 0
8 2.26087 0
8.20003 2.3805 0
8.4 2 0
8.4 2.5 0
8.20022 1.8875 0
8.20003 2.3805 0
8.4 2.5 0
8.4 3 0
8.20003 2.3805 0
8.2 2.87391 0
8.20005 21.6194 0
8.4 21.5 0
8.20035 22.1121 0
8.4 22 0
8 21.7391 0
8.20005 21.6194 0
8 22.2261 0
8.20035 22.1121 0
8 21.2522 0
8.2 21.1261 0
8 21.7391 0
8.20005 21.6194 0
8.2 21.1261 0
8.4 21 0
8.20005 21.6194 0
8.4 21.5 0
8 3.23478 0
8.2 3.36739 0
8 3.72174 0
8.2 3.86087 0
8 2.74783 0
8.2 2.87391 0
8 3.23478 0
8.2 3.36739 0
8.4 3 0
8.4 3.5 0
8.2 2.87391 0
8.2 3.36739 0
8.4 3.5 0
8.4 4 0
8.2 3.36739 0
8.2 3.86087 0
8.2 20.6326 0
8.4 20.5 0
8.2 21.1261 0
8.4 21 0
8 20.7652 0
8.2 20.6326 0
8 21.2522 0
8.2 21.1261 0
8 20.2783 0
8.2 20.1391 0
8 20.7652 0
8.2 20.6326 0
8.2 20.1391 0
8.4 20 0
8.2 20.6326 0
8.4 20.5 0
7 0 0
7.46667 0 0
7.00198 0.331094 0
7.37297 0.372717 0
7.00198 0.331094 0
7.37297 0.372717 0
6.94022 0.576588 0
7.25 0.8 0
7.00198 0.331094 0
6.94022 0.576588 0
6.69426 0.367442 0
6.75692 0.535711 0
7 0 0
7.00198 0.331094 0
6.53333 0 0
6.69426 0.367442 0
8.4 4.5 0
8.2 4.35435 0
8.4 4 0
8.2 3.86087 0
8.4 5 0
8.2 4.84783 0
8.4 4.5 0
8.2 4.35435 0
8 4.69565 0
8 4.2087 0
8.2 4.84783 0
8.2 4.35435 0
8 4.2087 0
8 3.72174 0
8.2 4.35435 0
8.2 3.86087 0
8.2 19.6457 0
8.4 19.5 0
8.2 20.1391 0
8.4 20 0
8 19.7913 0
8.2 19.6457 0
8 20.2783 0
8.2 20.1391 0
8 19.3043 0
8.2 19.1522 0
8 19.7913 0
8.2 19.6457 0
8.2 19.1522 0
8.4 19 0
8.2 19.6457 0
8.4 19.5 0
8.4 5.5 0
8.2 5.3413 0
8.4 5 0
8.2 4.84783 0
8.4 6 0
8.2 5.83478 0
8.4 5.5 0
8.2 5.3413 0
8 5.66957 0
8 5.18261 0
8.2 5.83478 0
8.2 5.3413 0
8 5.18261 0
8 4.69565 0
8.2 5.3413 0
8.2 4.84783 0
8.2 18.6587 0
8.4 18.5 0
8.2 19.1522 0
8.4 19 0
8 18.8174 0
8.2 18.6587 0
8 19.3043 0
8.2 19.1522 0
8 18.3304 0
8.2 18.1652 0
8 18.8174 0
8.2 18.6587 0
8.2 18.1652 0
8.4 18 0
8.2 18.6587 0
8.4 18.5 0
8 6.15652 0
8.2 6.32826 0
8 6.64348 0
8.2 6.82174 0
8 5.66957 0
8.2 5.83478 0
8 6.15652 0
8.2 6.32826 0
8.4 6 0
8.4 6.5 0
8.2 5.83478 0
8.2 6.32826 0
8.4 6.5 0
8.4 7 0
8.2 6.32826 0
8.2 6.82174 0
8.2 17.6717 0
8.4 17.5 0
8.2 18.1652 0
8.4 18 0
8 17.8435 0
8.2 17.6717 0
8 18.3304 0
8.2 18.1652 0
8 17.3565 0
8.2 17.1783 0
8 17.8435 0
8.2 17.6717 0
8.2 17.1783 0
8.4 17 0
8.2 17.6717 0
8.4 17.5 0
8.4 7.5 0
8.2 7.31522 0
8.4 7 0
8.2 6.82174 0
8.4 8 0
8.2 7.8087 0
8.4 7.5 0
8.2 7.31522 0
8.2 16.6848 0
8.4 16.5 0
8.2 17.1783 0
8.4 17 0
8 16.8696 0
8.2 16.6848 0
8 17.3565 0
8.2 17.1783 0
8.2 16.1913 0
8.4 16 0
8.2 16.6848 0
8.4 16.5 0
8.4 8 0
8.4 8.5 0
8.2 7.8087 0
8.2 8.30217 0
8.4 8.5 0
8.4 9 0
8.2 8.30217 0
8.2 8.79565 0
8.2 15.6978 0
8.4 15.5 0
8.2 16.1913 0
8.4 16 0
8.2 15.2043 0
8.4 15 0
8.2 15.6978 0
8.4 15.5 0
8.4 9 0
8.4 9.5 0
8.2 8.79565 0
8.2 9.28913 0
8.4 9.5 0
8.4 10 0
8.2 9.28913 0
8.2 9.78261 0
8.2 14.7109 0
8.4 14.5 0
8.2 15.2043 0
8.4 15 0
8.2 14.2174 0
8.4 14 0
8.2 14.7109 0
8.4 14.5 0
8.4 10.5 0
8.2 10.2761 0
8.4 10 0
8.2 9.78261 0
8.4 11 0
8.2 10.7696 0
8.4 10.5 0
8.2 10.2761 0
8.2 13.7239 0
8.4 13.5 0
8.2 14.2174 0
8.4 14 0
8.2 13.2304 0
8.4 13 0
8.2 13.7239 0
8.4 13.5 0
8.4 11.5 0
8.2 11.263 0
8.4 11 0
8.2 10.7696 0
8.4 12 0
8.2 11.7565 0
8.4 11.5 0
8.2 11.263 0
8.2 12.737 0
8.4 12.5 0
8.2 13.2304 0
8.4 13 0
8.2 12.2435 0
8.4 12 0
8.2 12.737 0
8.4 12.5 0
6.47056 0.554541 0
6.65423 0.648139 0
6.3 0.8 0
6.5 0.8 0
6.22598 0.450874 0
6.47056 0.554541 0
6.1 0.8 0
6.3 0.8 0
6.53333 0 0
6.69426 0.367442 0
6.22598 0.450874 0
6.47056 0.554541 0
6.69426 0.367442 0
6.75692 0.535711 0
6.47056 0.554541 0
6.65423 0.648139 0
6.94022 0.576588 0
7.25 0.8 0
6.82768 0.687981 0
6.875 0.8 0
6.82768 0.687981 0
6.875 0.8 0
6.65423 0.648139 0
6.5 0.8 0
6.94022 0.576588 0
6.82768 0.687981 0
6.75692 0.535711 0
6.65423 0.648139 0
7.23333 23.6 0
7 23.7333 0
7 23.2 0
6.76667 23.6 0
7.23333 23.6 0
7.46667 24 0
7 23.7333 0
7 24 0
7 23.7333 0
7 24 0
6.76667 23.6 0
6.53333 24 0
8.4 0 0
8.4 0.5 0
8.08564 0.489853 0
8.24539 0.628305 0
8.4 0.5 0
8.4 1 0
8.24539 0.628305 0
8.21539 0.946782 0
8.08564 0.489853 0
8.24539 0.628305 0
8 0.8 0
8.21539 0.946782 0
8 12 0
8 11.513 0
8.13333 12 0
8.2 11.7565 0
8.2 12.2435 0
8.13333 12 0
8.4 12 0
8.2 11.7565 0
8 12.487 0
8 12 0
8.2 12.2435 0
8.13333 12 0
8.2409 23.3709 0
8.21496 23.0543 0
8.4 23.5 0
8.4 23 0
8.06391 23.5091 0
8.2409 23.3709 0
8.4 24 0
8.4 23.5 0
8.06391 23.5091 0
8 23.2 0
8.2409 23.3709 0
8.21496 23.0543 0
3.48654 19.2104 0
3.48571 18.8 0
3.92285 19.2089 0
3.92143 18.8 0
3.92285 19.2089 0
3.92143 18.8 0
4.35873 19.2071 0
4.35714 18.8 0
3.92285 19.2089 0
4.35873 19.2071 0
3.92402 19.6155 0
4.36024 19.6131 0
3.48654 19.2104 0
3.92285 19.2089 0
3.48709 19.6173 0
3.92402 19.6155 0
2.61306 19.209 0
2.61429 18.8 0
3.04979 19.2095 0
3.05 18.8 0
3.04979 19.2095 0
3.05 18.8 0
3.48654 19.2104 0
3.48571 18.8 0
3.04979 19.2095 0
3.48654 19.2104 0
3.04963 19.6194 0
3.48709 19.6173 0
2.61306 19.209 0
3.04979 19.2095 0
2.61199 19.618 0
3.04963 19.6194 0
3.04985 20.8074 0
3.4864 20.8076 0
3.05 21.2 0
3.48571 21.2 0
2.6132 20.8075 0
3.04985 20.8074 0
2.61429 21.2 0
3.05 21.2 0
2.61227 20.4138 0
3.04975 20.4138 0
2.6132 20.8075 0
3.04985 20.8074 0
3.04975 20.4138 0
3.48707 20.4145 0
3.04985 20.8074 0
3.4864 20.8076 0
3.04974 20.0186 0
3.48724 20.0176 0
3.04975 20.4138 0
3.48707 20.4145 0
2.61181 20.0173 0
3.04974 20.0186 0
2.61227 20.4138 0
3.04975 20.4138 0
2.61199 19.618 0
3.04963 19.6194 0
2.61181 20.0173 0
3.04974 20.0186 0
3.04963 19.6194 0
3.48709 19.6173 0
3.04974 20.0186 0
3.48724 20.0176 0
0.432966 19.604 0
0.866169 19.6083 0
0.432331 20.0047 0
0.865158 20.0094 0
0.432331 20.0047 0
0.865158 20.0094 0
0.431771 20.4049 0
0.864168 20.4095 0
0 20 0
0.432331 20.0047 0
0 20.4 0
0.431771 20.4049 0
0 19.6 0
0.432966 19.604 0
0 20 0
0.432331 20.0047 0
5.23131 20.0079 0
5.66598 20.0043 0
5.23131 20.4073 0
5.66612 20.4043 0
5.23107 19.6073 0
5.66553 19.6034 0
5.23131 20.0079 0
5.66598 20.0043 0
5.66553 19.6034 0
6.1 19.6 0
5.66598 20.0043 0
6.1 20 0
5.66598 20.0043 0
6.1 20 0
5.66612 20.4043 0
6.1 20.4 0
0 20.8 0
0.433758 20.8025 0
0 21.2 0
[...]
POINT_DATA 7260
SCALARS solution double 1
LOOKUP_TABLE default
8.53511 8.23973 8.56403 8.27982 8.70638 8.53511 8.83856 8.56403 8.77043 8.59037 8.70638 8.53511 8.59037 8.24008 8.53511 8.23973 2.26797 2.25468 2.26506 2.24732 2.27244 2.26797 2.27555 2.26506 2.27467 2.27751 2.27244 2.26797 2.27751 2.26817 2.26797 2.25468 7.88196 7.49407 7.94655 7.58163 8.23973 7.88196 8.27982 7.94655 8.24008 7.83514 8.23973 7.88196 7.83514 7.41084 7.88196 7.49407 2.23331 2.2054 2.22323 2.19402 2.25468 2.23331 2.24732 2.22323 2.26817 2.24839 2.25468 2.23331 2.24839 2.2206 2.23331 2.2054 7.09509 6.6969 7.20221 6.82027 7.49407 7.09509 7.58163 7.20221 7.41084 6.98424 7.49407 7.09509 6.98424 6.56515 7.09509 6.6969 2.17248 2.13581 2.16086 2.1247 2.2054 2.17248 2.19402 2.16086 2.2206 2.18693 2.2054 2.17248 2.18693 2.149 2.17248 2.13581 6.30688 5.92953 6.44361 6.07714 6.6969 6.30688 6.82027 6.44361 6.56515 6.15932 6.6969 6.30688 6.15932 5.77005 6.30688 5.92953 2.09635 2.05477 2.08627 2.04609 2.13581 2.09635 2.1247 2.08627 2.149 2.10795 2.13581 2.09635 2.10795 2.06453 2.09635 2.05477 5.56745 5.22203 5.72382 5.38532 5.92953 5.56745 6.07714 5.72382 5.77005 5.39901 5.92953 5.56745 5.39901 5.04688 5.56745 5.22203 2.01155 1.96703 2.00457 1.96205 2.05477 2.01155 2.04609 2.00457 2.06453 2.0192 2.05477 2.01155 2.0192 1.97222 2.01155 1.96703 4.89411 4.58508 5.06255 4.75617 5.22203 4.89411 5.38532 5.06255 5.04688 4.71349 5.22203 4.89411 4.71349 4.39756 4.89411 4.58508 1.92154 1.87547 1.91888 1.87548 1.96703 1.92154 1.96205 1.91888 1.97222 1.92374 1.96703 1.92154 1.92374 1.87401 1.92154 1.87547 3.17544 3.01819 3.24752 2.98329 3.37663 3.17544 3.46641 3.24752 3.29881 3.10557 3.37663 3.17544 3.10557 2.9662 3.17544 3.01819 4.30192 4.0767 4.4685 4.21912 4.58508 4.30192 4.75617 4.4685 4.39756 4.09524 4.58508 4.30192 4.09524 3.80429 4.30192 4.0767 2.77701 2.80005 2.80022 2.85906 2.80119 2.80783 2.77701 2.80005 2.81292 2.82221 2.80783 2.80005 2.82221 2.98329 2.80005 2.85906 1.65357 1.64167 1.6468 1.6344 1.67062 1.64792 1.65357 1.64167 1.64269 1.63607 1.64792 1.64167 1.63607 1.62759 1.64167 1.6344 1.82937 1.78402 1.83244 1.79049 1.87547 1.82937 1.87548 1.83244 1.87401 1.82356 1.87547 1.82937 1.82356 1.77333 1.82937 1.78402 1.70254 1.72406 1.67394 1.67062 1.70254 1.67394 1.68086 1.65197 1.74181 1.70254 1.71357 1.68086 1.74181 1.77333 1.70254 1.72406 2.84413 2.84269 2.8868 2.88485 2.81292 2.80783 2.84413 2.84269 2.80119 2.84028 2.80783 2.84269 2.84028 2.8819 2.84269 2.88485 1.63673 1.62714 1.63607 1.62759 1.64453 1.63673 1.64269 1.63607 1.65177 1.64279 1.64453 1.63673 1.64279 1.63228 1.63673 1.62714 2.9314 2.92671 2.97376 2.96428 2.8868 2.88485 2.9314 2.92671 2.8819 2.92065 2.88485 2.92671 2.92065 2.95305 2.92671 2.96428 1.65327 1.64208 1.64279 1.63228 1.66312 1.65327 1.65177 1.64279 1.67812 1.66789 1.66312 1.65327 1.66789 1.6562 1.65327 1.64208 3.53489 3.29881 3.57895 3.37663 3.57895 3.37663 3.64028 3.46641 3.57895 3.64028 3.76799 3.75074 3.53489 3.57895 3.80429 3.76799 2.97648 2.99445 2.95305 2.96428 2.98955 3.01493 2.97648 2.99445 3.03835 3.01045 3.01493 2.99445 3.01045 2.97376 2.99445 2.96428 1.68751 1.67537 1.66789 1.6562 1.69772 1.68751 1.67812 1.66789 1.72391 1.71383 1.69772 1.68751 1.71383 1.70116 1.68751 1.67537 2.99223 3.02482 2.98955 3.01493 2.98543 3.02453 2.99223 3.02482 3.06203 3.05561 3.02453 3.02482 3.05561 3.03835 3.02482 3.01493 1.74842 1.73507 1.71383 1.70116 1.75867 1.74842 1.72391 1.71383 1.80269 1.79174 1.75867 1.74842 1.79174 1.77758 1.74842 1.73507 3.05851 3.01516 3.04638 2.99805 3.06203 3.02453 3.05851 3.01516 2.98543 2.97045 3.02453 3.01516 2.97045 2.94857 3.01516 2.99805 1.84286 1.82791 1.79174 1.77758 1.85489 1.84286 1.80269 1.79174 1.91323 1.90005 1.85489 1.84286 1.90005 1.88443 1.84286 1.82791 2.92094 2.97445 2.94857 2.99805 2.88846 2.94542 2.92094 2.97445 1.96149 1.94532 1.90005 1.88443 1.9757 1.96149 1.91323 1.90005 2.02558 2.00899 1.96149 1.94532 2.88846 2.85186 2.94542 2.91179 2.85186 2.81167 2.91179 2.87424 2.09106 2.07412 2.02558 2.00899 2.15697 2.13971 2.09106 2.07412 2.81167 2.7683 2.87424 2.83324 2.7683 2.72206 2.83324 2.78918 2.22257 2.20503 2.15697 2.13971 2.28732 2.2695 2.22257 2.20503 2.67318 2.74233 2.72206 2.78918 2.62182 2.6929 2.67318 2.74233 2.35084 2.33272 2.28732 2.2695 2.41283 2.3944 2.35084 2.33272 2.56815 2.64105 2.62182 2.6929 2.51226 2.58692 2.56815 2.64105 2.47306 2.4543 2.41283 2.3944 2.53138 2.51226 2.47306 2.4543 3.94047 3.83125 4.1117 3.96508 4.0767 3.94047 4.21912 4.1117 3.80429 3.76799 4.0767 3.94047 3.76799 3.75074 3.94047 3.83125 3.64028 3.46641 3.72012 3.69761 3.72012 3.69761 3.83125 3.96508 3.64028 3.72012 3.75074 3.83125 1.74181 1.75883 1.77333 1.78402 1.74181 1.71357 1.75883 1.75052 1.75883 1.75052 1.78402 1.79049 2.9662 2.89651 3.01819 2.92771 2.89651 2.80022 2.92771 2.85906 3.01819 2.92771 2.98329 2.85906 2.6069 2.66146 2.5752 2.58692 2.53138 2.5752 2.51226 2.58692 2.5502 2.6069 2.53138 2.5752 1.66118 1.65357 1.65417 1.6468 1.67394 1.66118 1.65197 1.65417 1.67394 1.67062 1.66118 1.65357 61.9436 62.1852 62.0861 62.3676 62.0861 62.3676 62.2461 62.5919 62.0861 62.2461 61.4652 61.5404 61.9436 62.0861 61.3838 61.4652 61.7056 61.9052 61.8185 62.0341 61.8185 62.0341 61.9436 62.1852 61.8185 61.9436 61.2975 61.3838 61.7056 61.8185 61.2144 61.2975 59.0016 59.0399 58.2477 58.2878 58.9273 59.0016 58.1627 58.2477 59.7508 59.8143 58.9273 59.0016 59.8143 59.8531 59.0016 59.0399 60.6027 60.6577 59.8143 59.8531 60.5387 60.6027 59.7508 59.8143 61.2144 61.2975 60.5387 60.6027 61.2975 61.3838 60.6027 60.6577 60.8131 60.8875 60.1076 60.1982 60.1076 60.1982 59.2114 59.3294 60.0159 60.1076 59.094 59.2114 60.741 60.8131 60.0159 60.1076 60.7071 60.6622 59.7731 59.6913 61.6507 61.6695 60.7071 60.6622 61.6695 61.6524 60.6622 60.5897 60.6622 60.5897 59.6913 59.5885 57.9137 58.113 55.9236 56.7277 59.094 59.2114 57.9137 58.113 59.2114 59.3294 58.113 58.3072 58.113 58.3072 56.7277 57.2326 62.2461 62.4235 61.5404 61.6054 62.2461 62.5919 62.4235 62.8805 62.4235 62.8805 62.6123 63.2796 62.4235 62.6123 61.6054 61.6507 62.791 63.9154 62.9783 65.2931 62.791 62.9783 61.6695 61.6524 62.6123 62.791 61.6507 61.6695 62.6123 63.2796 62.791 63.9154 61.3002 61.3607 60.8131 60.8875 61.25 61.3002 60.741 60.8131 61.25 61.4892 61.3002 61.5091 61.3002 61.5091 61.3607 61.5557 59.7731 59.6913 58.8412 58.712 59.6913 59.5885 58.712 58.5541 58.712 58.5541 57.7342 57.3675 58.8412 58.712 57.973 57.7342 61.4318 61.5125 60.9658 61.0471 61.3607 61.4318 60.8875 60.9658 61.3607 61.5557 61.4318 61.6207 61.4318 61.6207 61.5125 61.7004 61.5125 61.7004 61.6039 61.7954 61.6039 61.7954 61.7056 61.9052 61.6039 61.7056 61.131 61.2144 61.5125 61.6039 61.0471 61.131 60.9658 61.0471 60.2905 60.3783 60.2905 60.3783 59.4526 59.5636 60.1982 60.2905 59.3294 59.4526 60.8875 60.9658 60.1982 60.2905 58.8186 58.9273 58.0294 58.1627 58.6747 58.8186 57.8408 58.0294 59.5636 59.668 58.6747 58.8186 59.668 59.7508 58.8186 58.9273 61.0471 61.131 60.3783 60.4639 61.131 61.2144 60.4639 60.5387 60.4639 60.5387 59.668 59.7508 60.3783 60.4639 59.5636 59.668 60.7241 60.7071 59.8292 59.7731 60.717 60.7241 59.86 59.8292 61.5404 61.6054 60.717 60.7241 61.6054 61.6507 60.7241 60.7071 58.3072 58.5001 57.2326 57.5838 59.3294 59.4526 58.3072 58.5001 59.4526 59.5636 58.5001 58.6747 58.5001 58.6747 57.5838 57.8408 59.8685 59.86 59.0428 59.0085 59.0428 59.0085 58.2836 58.2336 59.0399 59.0428 58.2878 58.2836 59.8531 59.8685 59.0399 59.0428 59.86 59.8292 59.0085 58.9416 59.8292 59.7731 58.9416 58.8412 58.9416 58.8412 58.1331 57.973 59.0085 58.9416 58.2336 58.1331 60.6577 60.6933 59.8531 59.8685 61.3838 61.4652 60.6577 60.6933 61.4652 61.5404 60.6933 60.717 60.6933 60.717 59.8685 59.86 45.5022 45.2141 47.1465 46.9683 45.2141 44.8378 46.9683 46.7792 46.9683 46.7792 48.6571 48.6056 47.1465 46.9683 48.706 48.6571 49.1485 49.0845 49.7601 49.7384 49.0845 49.024 49.7384 49.7252 49.7384 49.7252 49.9899 49.9974 49.7601 49.7384 49.9922 49.9899 49.024 48.9642 49.7252 49.7218 48.9642 48.9085 49.7218 49.7317 49.7218 49.7317 50.0187 50.0588 49.7252 49.7218 49.9974 50.0187 47.3107 47.1465 48.7542 48.706 47.4599 47.3107 48.8028 48.7542 45.9423 45.7389 47.4599 47.3107 45.7389 45.5022 47.3107 47.1465 48.0816 47.9665 49.0845 49.024 48.1918 48.0816 49.1485 49.0845 46.9398 46.7624 48.1918 48.0816 46.7624 46.6022 48.0816 47.9665 48.706 48.6571 49.961 50.0752 48.6571 48.6056 50.0752 50.202 50.0752 50.202 50.8573 51.2819 49.961 50.0752 50.5709 50.8573 47.8489 47.7276 48.9642 48.9085 47.9665 47.8489 49.024 48.9642 46.6022 46.4471 47.9665 47.8489 46.4471 46.2894 47.8489 47.7276 48.8028 48.7542 49.8023 49.8695 48.7542 48.706 49.8695 49.961 49.8695 49.961 50.369 50.5709 49.8023 49.8695 50.2256 50.369 50.202 50.3213 51.2819 51.9828 48.6056 48.5502 50.202 50.3213 48.5502 48.4858 50.3213 50.4715 50.3213 50.4715 51.9828 53.429 44.2747 43.1713 46.5931 46.37 46.5931 46.37 48.5502 48.4858 46.7792 46.5931 48.6056 48.5502 44.8378 44.2747 46.7792 46.5931 49.8212 49.7879 50.0123 50.0005 49.2831 49.2137 49.8212 49.7879 49.2137 49.1485 49.7879 49.7601 49.7879 49.7601 50.0005 49.9922 47.1508 46.9398 48.3003 48.1918 48.3003 48.1918 49.2137 49.1485 48.4107 48.3003 49.2831 49.2137 47.3491 47.1508 48.4107 48.3003 48.9085 48.8543 49.7317 49.7576 48.8543 48.8028 49.7576 49.8023 49.7576 49.8023 50.1264 50.2256 49.7317 49.7576 50.0588 50.1264 47.5977 47.4599 48.8543 48.8028 47.7276 47.5977 48.9085 48.8543 46.2894 46.1232 47.7276 47.5977 46.1232 45.9423 47.5977 47.4599 129.222 129.089 108.32 108.13 129.089 129.056 108.13 107.949 195.832 195.764 194.457 194.389 194.457 194.389 192.603 192.536 194.479 194.457 192.626 192.603 195.854 195.832 194.479 194.457 189.761 189.276 191.725 191.23 189.276 188.72 191.23 190.676 191.23 190.676 192.663 192.111 191.725 191.23 193.166 192.663 186.648 186.104 189.276 188.72 187.105 186.648 189.761 189.276 183.589 183.149 187.105 186.648 183.149 182.642 186.648 186.104 154.357 140.97 154.124 140.771 154.518 141.1 154.357 140.97 141.1 123.551 140.97 123.402 140.97 123.402 140.771 123.193 196.759 195.737 196.647 195.625 196.647 195.625 196.494 195.473 197.322 196.647 197.164 196.494 197.435 196.759 197.322 196.647 157.838 157.481 168.038 167.756 157.481 157.044 167.756 167.4 167.756 167.4 175.643 175.377 168.038 167.756 175.84 175.643 187.453 186.971 184.093 183.687 189.975 189.463 187.453 186.971 189.463 188.906 186.971 186.449 186.971 186.449 183.687 183.222 192.406 192.33 194.368 194.296 194.368 194.296 195.807 195.737 194.396 194.368 195.832 195.807 192.44 192.406 194.396 194.368 186.939 186.832 182.719 182.548 186.832 186.669 182.548 182.31 182.548 182.31 176.974 176.667 182.719 182.548 177.216 176.974 193.669 193.203 192.294 191.828 192.294 191.828 190.441 189.975 192.716 192.294 190.863 190.441 194.09 193.669 192.716 192.294 187.482 187.105 190.165 189.761 187.806 187.482 190.527 190.165 184.179 183.91 187.806 187.482 183.91 183.589 187.482 187.105 197.509 197.486 196.842 196.82 197.486 197.418 196.82 196.752 196.82 196.752 195.832 195.764 196.842 196.82 195.854 195.832 197.509 197.896 197.486 197.873 197.896 198.027 197.873 198.004 197.873 198.004 197.806 197.936 197.486 197.873 197.418 197.806 191.828 191.316 189.975 189.463 193.203 192.691 191.828 191.316 192.691 192.134 191.316 190.76 191.316 190.76 189.463 188.906 193.679 193.122 192.691 192.134 194.191 193.679 193.203 192.691 194.857 194.345 194.191 193.679 194.345 193.788 193.679 193.122 190.111 190.009 186.832 186.669 190.167 190.111 186.939 186.832 192.626 192.603 190.167 190.111 192.603 192.536 190.111 190.009 192.16 191.725 193.622 193.166 192.55 192.16 194.031 193.622 190.527 190.165 192.55 192.16 190.165 189.761 192.16 191.725 196.85 195.832 196.827 195.807 196.827 195.807 196.759 195.737 197.502 196.827 197.435 196.759 197.525 196.85 197.502 196.827 198.027 197.907 198.004 197.885 197.907 197.525 197.885 197.502 197.885 197.502 197.817 197.435 198.004 197.885 197.936 197.817 196.121 196.508 195.745 196.132 196.453 196.84 196.121 196.508 196.84 196.971 196.508 196.639 196.508 196.639 196.132 196.263 195.063 194.031 194.652 193.622 194.652 193.622 194.191 193.166 195.34 194.652 194.873 194.191 195.761 195.063 195.34 194.652 192.201 192.037 194.178 194.02 194.178 194.02 195.625 195.473 194.296 194.178 195.737 195.625 192.33 192.201 194.296 194.178 195.244 195.375 194.732 194.863 194.732 194.863 194.175 194.306 194.345 194.732 193.788 194.175 194.857 195.244 194.345 194.732 194.361 193.684 193.804 193.129 194.873 194.191 194.361 193.684 194.191 193.166 193.684 192.663 193.684 192.663 193.129 192.111 195.745 195.323 195.079 194.657 195.323 194.857 194.657 194.191 194.657 194.191 193.669 193.203 195.079 194.657 194.09 193.669 190.441 189.975 187.834 187.453 187.834 187.453 184.379 184.093 188.172 187.834 184.514 184.379 190.863 190.441 188.172 187.834 196.132 196.263 195.71 195.841 195.71 195.841 195.244 195.375 195.323 195.71 194.857 195.244 195.745 196.132 195.323 195.71 197.306 197.148 196.639 196.481 196.639 196.481 195.651 195.493 196.752 196.639 195.764 195.651 197.418 197.306 196.752 196.639 196.137 195.425 195.761 195.063 196.469 195.742 196.137 195.425 195.742 194.668 195.425 194.367 195.425 194.367 195.063 194.031 194.863 194.743 194.306 194.186 195.375 195.255 194.863 194.743 195.255 194.873 194.743 194.361 194.743 194.361 194.186 193.804 197.704 197.322 197.546 197.164 197.824 197.704 197.666 197.546 197.936 197.817 197.824 197.704 197.817 197.435 197.704 197.322 197.693 197.824 197.535 197.666 197.306 197.693 197.148 197.535 197.418 197.806 197.306 197.693 197.806 197.936 197.693 197.824 195.841 195.722 195.375 195.255 196.263 196.143 195.841 195.722 196.143 195.761 195.722 195.34 195.722 195.34 195.255 194.873 196.851 196.469 196.52 196.137 196.52 196.137 196.143 195.761 196.639 196.52 196.263 196.143 196.971 196.851 196.639 196.52 195.455 195.079 194.466 194.09 195.786 195.455 194.797 194.466 196.453 196.121 195.786 195.455 196.121 195.745 195.455 195.079 196.481 196.278 195.493 195.291 197.148 196.945 196.481 196.278 196.945 196.696 196.278 196.03 196.278 196.03 195.291 195.043 197.148 197.535 196.945 197.332 197.535 197.666 197.332 197.463 197.332 197.463 197.083 197.215 196.945 197.332 196.696 197.083 193.092 192.716 191.239 190.863 193.423 193.092 191.57 191.239 194.797 194.466 193.423 193.092 194.466 194.09 193.092 192.716 197.343 196.961 197.095 196.712 197.463 197.343 197.215 197.095 197.666 197.546 197.463 197.343 197.546 197.164 197.343 196.961 196.578 196.453 195.912 195.786 195.912 195.786 194.924 194.797 196.03 195.912 195.043 194.924 196.696 196.578 196.03 195.912 195.651 195.493 194.275 194.117 194.275 194.117 192.419 192.258 194.389 194.275 192.536 192.419 195.764 195.651 194.389 194.275 197.083 197.215 196.966 197.097 196.966 197.097 196.84 196.971 196.578 196.966 196.453 196.84 196.696 197.083 196.578 196.966 197.215 197.095 197.097 196.977 197.095 196.712 196.977 196.593 196.977 196.593 196.851 196.469 197.097 196.977 196.971 196.851 193.834 193.611 195.293 195.077 194.02 193.834 195.473 195.293 192.037 191.837 194.02 193.834 191.837 191.602 193.834 193.611 196.494 195.473 196.301 195.293 196.301 195.293 196.069 195.077 196.961 196.301 196.712 196.069 197.164 196.494 196.961 196.301 192.419 192.258 189.833 189.607 189.833 189.607 186.411 186.032 190.009 189.833 186.669 186.411 192.536 192.419 190.009 189.833 191.12 190.838 193.171 192.878 190.838 190.527 192.878 192.55 192.878 192.55 194.367 194.031 193.171 192.878 194.668 194.367 194.924 194.797 193.551 193.423 193.551 193.423 191.701 191.57 193.672 193.551 191.824 191.701 195.043 194.924 193.672 193.551 193.916 193.672 192.064 191.824 194.117 193.916 192.258 192.064 195.493 195.291 194.117 193.916 195.291 195.043 193.916 193.672 186.36 186.289 189.823 189.778 186.289 186.179 189.778 189.686 189.778 189.686 192.406 192.33 189.823 189.778 192.44 192.406 183.589 178.904 183.149 178.553 178.904 172.791 178.553 172.499 178.553 172.499 178.089 172.124 183.149 178.553 182.642 178.089 196.712 196.069 196.593 195.912 196.069 195.077 195.912 194.877 195.912 194.877 195.742 194.668 196.593 195.912 196.469 195.742 191.365 191.12 193.401 193.171 193.401 193.171 194.877 194.668 193.611 193.401 195.077 194.877 191.602 191.365 193.611 193.401 179.389 179.002 173.8 173.5 179.705 179.389 174.026 173.8 184.093 183.687 179.705 179.389 183.687 183.222 179.389 179.002 189.345 189.11 192.037 191.837 185.764 185.468 189.345 189.11 185.468 185.173 189.11 188.838 189.11 188.838 191.837 191.602 181.807 175.84 181.684 175.643 181.684 175.643 181.511 175.377 186.289 181.684 186.179 181.511 186.36 181.807 186.289 181.684 164.841 164.621 172.791 172.499 154.518 154.357 164.841 164.621 154.357 154.124 164.621 164.322 164.621 164.322 172.499 172.124 129.905 129.496 108.934 108.617 129.496 129.222 108.617 108.32 166.542 166.329 157.122 156.981 166.69 166.542 157.22 157.122 174.026 173.8 166.69 166.542 173.8 173.5 166.542 166.329 189.686 189.542 192.33 192.201 186.179 186.006 189.686 189.542 186.006 185.764 189.542 189.345 189.542 189.345 192.201 192.037 176.974 176.667 169.733 169.366 169.733 169.366 160.333 159.93 170.044 169.733 160.696 160.333 177.216 176.974 170.044 169.733 179.379 173.143 179.185 172.976 179.185 172.976 178.904 172.791 183.91 179.185 183.589 178.904 184.179 179.379 183.91 179.185 130.818 130.342 109.656 109.312 130.342 129.905 109.312 108.934 160.333 159.93 148.097 147.667 148.097 147.667 132.068 131.686 148.481 148.097 132.424 132.068 160.696 160.333 148.481 148.097 144.485 126.909 144.082 126.52 144.082 126.52 143.61 126.087 157.481 144.082 157.044 143.61 157.838 144.485 157.481 144.082 144.876 144.768 128.849 128.721 144.935 144.876 128.952 128.849 157.22 157.122 144.935 144.876 157.122 156.981 144.876 144.768 174.045 174.152 166.626 166.729 166.626 166.729 157.053 157.207 166.46 166.626 156.824 157.053 173.935 174.045 166.46 166.626 167.322 166.885 157.778 157.318 174.69 174.24 167.322 166.885 174.24 173.935 166.885 166.46 166.885 166.46 157.318 156.824 167.891 167.322 158.408 157.778 168.439 167.891 158.969 158.408 175.803 175.244 168.439 167.891 175.244 174.69 167.891 167.322 141.058 123.624 141.083 123.549 141.083 123.549 141.095 123.639 154.569 141.083 154.545 141.095 154.601 141.058 154.569 141.083 131.253 130.818 110.005 109.656 141.141 123.619 141.1 123.551 154.576 141.141 154.518 141.1 154.545 141.095 154.576 141.141 141.095 123.639 141.141 123.619 155.377 154.947 165.981 165.675 165.981 165.675 174.103 173.849 166.373 165.981 174.481 174.103 155.771 155.377 166.373 165.981 165.02 164.967 173.143 172.976 154.545 154.576 165.02 164.967 154.576 154.518 164.967 164.841 164.967 164.841 172.976 172.791 157.207 157.237 144.933 144.965 157.237 157.22 144.965 144.935 144.965 144.935 128.994 128.952 144.933 144.965 129.056 128.994 191.701 191.57 188.581 188.377 188.581 188.377 184.22 183.903 188.774 188.581 184.521 184.22 191.824 191.701 188.774 188.581 180.223 179.869 174.69 174.24 184.521 184.22 180.223 179.869 184.22 183.903 179.869 179.521 179.869 179.521 174.24 173.935 156.477 143.063 155.771 142.473 157.044 143.61 156.477 143.063 143.61 126.087 143.063 125.584 143.063 125.584 142.473 124.947 147.667 147.217 131.686 131.253 159.93 159.46 147.667 147.217 159.46 158.969 147.217 146.713 147.217 146.713 131.253 130.818 141.926 124.305 141.433 123.966 155.377 141.926 154.947 141.433 155.771 142.473 155.377 141.926 142.473 124.947 141.926 124.305 144.759 144.871 129.222 129.089 156.824 157.053 144.759 144.871 157.053 157.207 144.871 144.933 144.871 144.933 129.089 129.056 165.379 165.221 173.604 173.407 165.675 165.379 173.849 173.604 154.947 154.723 165.675 165.379 154.723 154.601 165.379 165.221 158.969 158.408 146.713 146.193 158.408 157.778 146.193 145.671 146.193 145.671 130.342 129.905 146.713 146.193 130.818 130.342 157.318 156.824 145.208 144.759 145.208 144.759 129.496 129.222 145.671 145.208 129.905 129.496 157.778 157.318 145.671 145.208 154.723 141.134 154.601 141.058 154.947 141.433 154.723 141.134 141.433 123.966 141.134 123.646 141.134 123.646 141.058 123.624 185.764