# vtk DataFile Version 3.0
#This file was generated by the deal.II library on 2020/5/26 at 18:52:11
ASCII
DATASET UNSTRUCTURED_GRID

POINTS 18624 double
0.45119 0.4 0
0.902381 0.4 0
0.435714 0.8 0
0.871429 0.8 0
0 0.4 0
0.45119 0.4 0
0 0.8 0
0.435714 0.8 0
0 0 0
0.466667 0 0
0 0.4 0
0.45119 0.4 0
0.466667 0 0
0.933333 0 0
0.45119 0.4 0
0.902381 0.4 0
0.483333 23.6 0
0.966667 23.6 0
0.466667 24 0
0.933333 24 0
0 23.6 0
0.483333 23.6 0
0 24 0
0.466667 24 0
0 23.2 0
0.5 23.2 0
0 23.6 0
0.483333 23.6 0
0.5 23.2 0
1 23.2 0
0.483333 23.6 0
0.966667 23.6 0
1.35357 0.4 0
1.80476 0.4 0
1.30714 0.8 0
1.74286 0.8 0
0.902381 0.4 0
1.35357 0.4 0
0.871429 0.8 0
1.30714 0.8 0
0.933333 0 0
1.4 0 0
0.902381 0.4 0
1.35357 0.4 0
1.4 0 0
1.86667 0 0
1.35357 0.4 0
1.80476 0.4 0
1.45 23.6 0
1.93333 23.6 0
1.4 24 0
1.86667 24 0
0.966667 23.6 0
1.45 23.6 0
0.933333 24 0
1.4 24 0
1 23.2 0
1.5 23.2 0
0.966667 23.6 0
1.45 23.6 0
1.5 23.2 0
2 23.2 0
1.45 23.6 0
1.93333 23.6 0
2.25595 0.4 0
2.70714 0.4 0
2.17857 0.8 0
2.61429 0.8 0
1.80476 0.4 0
2.25595 0.4 0
1.74286 0.8 0
2.17857 0.8 0
1.86667 0 0
2.33333 0 0
1.80476 0.4 0
2.25595 0.4 0
2.33333 0 0
2.8 0 0
2.25595 0.4 0
2.70714 0.4 0
2.41667 23.6 0
2.9 23.6 0
2.33333 24 0
2.8 24 0
1.93333 23.6 0
2.41667 23.6 0
1.86667 24 0
2.33333 24 0
2 23.2 0
2.5 23.2 0
1.93333 23.6 0
2.41667 23.6 0
2.5 23.2 0
3 23.2 0
2.41667 23.6 0
2.9 23.6 0
3.15833 0.4 0
3.60952 0.4 0
3.05 0.8 0
3.48571 0.8 0
2.70714 0.4 0
3.15833 0.4 0
2.61429 0.8 0
3.05 0.8 0
2.8 0 0
3.26667 0 0
2.70714 0.4 0
3.15833 0.4 0
3.26667 0 0
3.73333 0 0
3.15833 0.4 0
3.60952 0.4 0
3.38333 23.6 0
3.86667 23.6 0
3.26667 24 0
3.73333 24 0
2.9 23.6 0
3.38333 23.6 0
2.8 24 0
3.26667 24 0
3 23.2 0
3.5 23.2 0
2.9 23.6 0
3.38333 23.6 0
3.5 23.2 0
4 23.2 0
3.38333 23.6 0
3.86667 23.6 0
4.06071 0.400002 0
4.51187 0.400017 0
3.92143 0.8 0
4.35714 0.8 0
3.60952 0.4 0
4.06071 0.400002 0
3.48571 0.8 0
3.92143 0.8 0
3.73333 0 0
4.2 0 0
3.60952 0.4 0
4.06071 0.400002 0
4.2 0 0
4.66667 0 0
4.06071 0.400002 0
4.51187 0.400017 0
4.35 23.6 0
4.83333 23.6 0
4.2 24 0
4.66667 24 0
3.86667 23.6 0
4.35 23.6 0
3.73333 24 0
4.2 24 0
4 23.2 0
4.5 23.2 0
3.86667 23.6 0
4.35 23.6 0
4.5 23.2 0
5 23.2 0
4.35 23.6 0
4.83333 23.6 0
4.96274 0.40018 0
5.412 0.401188 0
4.79286 0.8 0
5.22857 0.8 0
4.51187 0.400017 0
4.96274 0.40018 0
4.35714 0.8 0
4.79286 0.8 0
4.66667 0 0
5.13333 0 0
4.51187 0.400017 0
4.96274 0.40018 0
5.13333 0 0
5.6 0 0
4.96274 0.40018 0
5.412 0.401188 0
5.31667 23.6 0
5.8 23.6 0
5.13333 24 0
5.6 24 0
4.83333 23.6 0
5.31667 23.6 0
4.66667 24 0
5.13333 24 0
5 23.2 0
5.5 23.2 0
4.83333 23.6 0
5.31667 23.6 0
5.5 23.2 0
6 23.2 0
5.31667 23.6 0
5.8 23.6 0
7.7656 0.408656 0
8.08564 0.489853 0
7.625 0.8 0
8 0.8 0
7.37297 0.372717 0
7.7656 0.408656 0
7.25 0.8 0
7.625 0.8 0
7.46667 0 0
7.93333 0 0
7.37297 0.372717 0
7.7656 0.408656 0
7.93333 0 0
8.4 0 0
7.7656 0.408656 0
8.08564 0.489853 0
5.851 0.407784 0
6.22598 0.450874 0
5.66429 0.8 0
6.1 0.8 0
5.412 0.401188 0
5.851 0.407784 0
5.22857 0.8 0
5.66429 0.8 0
5.6 0 0
6.06667 0 0
5.412 0.401188 0
5.851 0.407784 0
6.06667 0 0
6.53333 0 0
5.851 0.407784 0
6.22598 0.450874 0
8.4 1.5 0
8.20238 1.40048 0
8.4 1 0
8.21539 0.946782 0
8.4 2 0
8.20022 1.8875 0
8.4 1.5 0
8.20238 1.40048 0
8 1.77391 0
8 1.28696 0
8.20022 1.8875 0
8.20238 1.40048 0
8 1.28696 0
8 0.8 0
8.20238 1.40048 0
8.21539 0.946782 0
8.21496 23.0543 0
8.2025 22.599 0
8.4 23 0
8.4 22.5 0
8 23.2 0
8 22.713 0
8.21496 23.0543 0
8.2025 22.599 0
8 22.2261 0
8.20035 22.1121 0
8 22.713 0
8.2025 22.599 0
8.20035 22.1121 0
8.4 22 0
8.2025 22.599 0
8.4 22.5 0
6.28333 23.6 0
6.76667 23.6 0
6.06667 24 0
6.53333 24 0
5.8 23.6 0
6.28333 23.6 0
5.6 24 0
6.06667 24 0
6 23.2 0
6.5 23.2 0
5.8 23.6 0
6.28333 23.6 0
6.5 23.2 0
7 23.2 0
6.28333 23.6 0
6.76667 23.6 0
7.69489 23.5856 0
7.5 23.2 0
8.06391 23.5091 0
8 23.2 0
7.69489 23.5856 0
8.06391 23.5091 0
7.93333 24 0
8.4 24 0
7.23333 23.6 0
7.69489 23.5856 0
7.46667 24 0
7.93333 24 0
7.23333 23.6 0
7 23.2 0
7.69489 23.5856 0
7.5 23.2 0
8 2.26087 0
8.20003 2.3805 0
8 2.74783 0
8.2 2.87391 0
8 1.77391 0
8.20022 1.8875 0
8 2.26087 0
8.20003 2.3805 0
8.4 2 0
8.4 2.5 0
8.20022 1.8875 0
8.20003 2.3805 0
8.4 2.5 0
8.4 3 0
8.20003 2.3805 0
8.2 2.87391 0
8.20005 21.6194 0
8.4 21.5 0
8.20035 22.1121 0
8.4 22 0
8 21.7391 0
8.20005 21.6194 0
8 22.2261 0
8.20035 22.1121 0
8 21.2522 0
8.2 21.1261 0
8 21.7391 0
8.20005 21.6194 0
8.2 21.1261 0
8.4 21 0
8.20005 21.6194 0
8.4 21.5 0
8 2.74783 0
8.2 2.87391 0
8 3.23478 0
8.2 3.36739 0
8.4 3 0
8.4 3.5 0
8.2 2.87391 0
8.2 3.36739 0
8.4 3.5 0
8.4 4 0
8.2 3.36739 0
8.2 3.86087 0
8.2 20.6326 0
8.4 20.5 0
8.2 21.1261 0
8.4 21 0
8 20.7652 0
8.2 20.6326 0
8 21.2522 0
8.2 21.1261 0
8 20.2783 0
8.2 20.1391 0
8 20.7652 0
8.2 20.6326 0
8.2 20.1391 0
8.4 20 0
8.2 20.6326 0
8.4 20.5 0
7 0 0
7.46667 0 0
7.00198 0.331094 0
7.37297 0.372717 0
7.00198 0.331094 0
7.37297 0.372717 0
6.94022 0.576588 0
7.25 0.8 0
7.00198 0.331094 0
6.94022 0.576588 0
6.69426 0.367442 0
6.75692 0.535711 0
7 0 0
7.00198 0.331094 0
6.53333 0 0
6.69426 0.367442 0
8.4 4.5 0
8.2 4.35435 0
8.4 4 0
8.2 3.86087 0
8.4 5 0
8.2 4.84783 0
8.4 4.5 0
8.2 4.35435 0
8.2 19.6457 0
8.4 19.5 0
8.2 20.1391 0
8.4 20 0
8 19.7913 0
8.2 19.6457 0
8 20.2783 0
8.2 20.1391 0
8.2 19.1522 0
8.4 19 0
8.2 19.6457 0
8.4 19.5 0
8.4 5.5 0
8.2 5.3413 0
8.4 5 0
8.2 4.84783 0
8.4 6 0
8.2 5.83478 0
8.4 5.5 0
8.2 5.3413 0
8.2 18.6587 0
8.4 18.5 0
8.2 19.1522 0
8.4 19 0
8.2 18.1652 0
8.4 18 0
8.2 18.6587 0
8.4 18.5 0
8.4 6 0
8.4 6.5 0
8.2 5.83478 0
8.2 6.32826 0
8.4 6.5 0
8.4 7 0
8.2 6.32826 0
8.2 6.82174 0
8.2 17.6717 0
8.4 17.5 0
8.2 18.1652 0
8.4 18 0
8.2 17.1783 0
8.4 17 0
8.2 17.6717 0
8.4 17.5 0
8.4 7.5 0
8.2 7.31522 0
8.4 7 0
8.2 6.82174 0
8.4 8 0
8.2 7.8087 0
8.4 7.5 0
8.2 7.31522 0
8.2 16.6848 0
8.4 16.5 0
8.2 17.1783 0
8.4 17 0
8.2 16.1913 0
8.4 16 0
8.2 16.6848 0
8.4 16.5 0
8.4 8 0
8.4 8.5 0
8.2 7.8087 0
8.2 8.30217 0
8.4 8.5 0
8.4 9 0
8.2 8.30217 0
8.2 8.79565 0
8.2 15.6978 0
8.4 15.5 0
8.2 16.1913 0
8.4 16 0
8.2 15.2043 0
8.4 15 0
8.2 15.6978 0
8.4 15.5 0
8.4 9 0
8.4 9.5 0
8.2 8.79565 0
8.2 9.28913 0
8.4 9.5 0
8.4 10 0
8.2 9.28913 0
8.2 9.78261 0
8.2 14.7109 0
8.4 14.5 0
8.2 15.2043 0
8.4 15 0
8.2 14.2174 0
8.4 14 0
8.2 14.7109 0
8.4 14.5 0
8.4 10.5 0
8.2 10.2761 0
8.4 10 0
8.2 9.78261 0
8.4 11 0
8.2 10.7696 0
8.4 10.5 0
8.2 10.2761 0
8.2 13.7239 0
8.4 13.5 0
8.2 14.2174 0
8.4 14 0
8.2 13.2304 0
8.4 13 0
8.2 13.7239 0
8.4 13.5 0
8.4 11.5 0
8.2 11.263 0
8.4 11 0
8.2 10.7696 0
8.4 12 0
8.2 11.7565 0
8.4 11.5 0
8.2 11.263 0
8.2 12.737 0
8.4 12.5 0
8.2 13.2304 0
8.4 13 0
8.2 12.2435 0
8.4 12 0
8.2 12.737 0
8.4 12.5 0
6.47056 0.554541 0
6.65423 0.648139 0
6.3 0.8 0
6.5 0.8 0
6.22598 0.450874 0
6.47056 0.554541 0
6.1 0.8 0
6.3 0.8 0
6.53333 0 0
6.69426 0.367442 0
6.22598 0.450874 0
6.47056 0.554541 0
6.69426 0.367442 0
6.75692 0.535711 0
6.47056 0.554541 0
6.65423 0.648139 0
6.94022 0.576588 0
7.25 0.8 0
6.82768 0.687981 0
6.875 0.8 0
6.82768 0.687981 0
6.875 0.8 0
6.65423 0.648139 0
6.5 0.8 0
6.94022 0.576588 0
6.82768 0.687981 0
6.75692 0.535711 0
6.65423 0.648139 0
7.23333 23.6 0
7 23.7333 0
7 23.2 0
6.76667 23.6 0
7.23333 23.6 0
7.46667 24 0
7 23.7333 0
7 24 0
7 23.7333 0
7 24 0
6.76667 23.6 0
6.53333 24 0
8.4 0 0
8.4 0.5 0
8.08564 0.489853 0
8.24539 0.628305 0
8.4 0.5 0
8.4 1 0
8.24539 0.628305 0
8.21539 0.946782 0
8.08564 0.489853 0
8.24539 0.628305 0
8 0.8 0
8.21539 0.946782 0
8.2 12.2435 0
8.13333 12 0
8.4 12 0
8.2 11.7565 0
8.2409 23.3709 0
8.21496 23.0543 0
8.4 23.5 0
8.4 23 0
8.06391 23.5091 0
8.2409 23.3709 0
8.4 24 0
8.4 23.5 0
8.06391 23.5091 0
8 23.2 0
8.2409 23.3709 0
8.21496 23.0543 0
3.92285 19.2089 0
4.35873 19.2071 0
3.92402 19.6155 0
4.36024 19.6131 0
3.48654 19.2104 0
3.92285 19.2089 0
3.48709 19.6173 0
3.92402 19.6155 0
3.04979 19.2095 0
3.48654 19.2104 0
3.04963 19.6194 0
3.48709 19.6173 0
2.61306 19.209 0
3.04979 19.2095 0
2.61199 19.618 0
3.04963 19.6194 0
3.04985 20.8074 0
3.4864 20.8076 0
3.05 21.2 0
3.48571 21.2 0
2.6132 20.8075 0
3.04985 20.8074 0
2.61429 21.2 0
3.05 21.2 0
2.61227 20.4138 0
3.04975 20.4138 0
2.6132 20.8075 0
3.04985 20.8074 0
3.04975 20.4138 0
3.48707 20.4145 0
3.04985 20.8074 0
3.4864 20.8076 0
3.04974 20.0186 0
3.48724 20.0176 0
3.04975 20.4138 0
3.48707 20.4145 0
2.61181 20.0173 0
3.04974 20.0186 0
2.61227 20.4138 0
3.04975 20.4138 0
2.61199 19.618 0
3.04963 19.6194 0
2.61181 20.0173 0
3.04974 20.0186 0
3.04963 19.6194 0
3.48709 19.6173 0
3.04974 20.0186 0
3.48724 20.0176 0
0.432966 19.604 0
0.866169 19.6083 0
0.432331 20.0047 0
0.865158 20.0094 0
0.432331 20.0047 0
0.865158 20.0094 0
0.431771 20.4049 0
0.864168 20.4095 0
0 20 0
0.432331 20.0047 0
0 20.4 0
0.431771 20.4049 0
0 19.6 0
0.432966 19.604 0
0 20 0
0.432331 20.0047 0
5.23131 20.0079 0
5.66598 20.0043 0
5.23131 20.4073 0
5.66612 20.4043 0
5.23107 19.6073 0
5.66553 19.6034 0
5.23131 20.0079 0
5.66598 20.0043 0
5.66553 19.6034 0
6.1 19.6 0
5.66598 20.0043 0
6.1 20 0
5.66598 20.0043 0
6.1 20 0
5.66612 20.4043 0
6.1 20.4 0
0 20.4 0
0.431771 20.4049 0
0 20.8 0
0.433758 20.8025 0
0.431771 20.4049 0
0.864168 20.4095 0
0.433758 20.8025 0
0.867586 20.8051 0
0.433758 20.8025 0
0.867586 20.8051 0
0.435714 21.2 0
0.871429 21.2 0
4.35873 19.2071 0
4.79445 19.2057 0
4.36024 19.6131 0
4.79575 19.61 0
4.79445 19.2057 0
5.22993 19.2041 0
4.79575 19.61 0
5.23107 19.6073 0
5.66501 19.202 0
6.1 19.2 0
5.66553 19.6034 0
6.1 19.6 0
5.22993 19.2041 0
5.66501 19.202 0
5.23107 19.6073 0
5.66553 19.6034 0
0.434142 19.2024 0
0.868611 19.2046 0
0.432966 19.604 0
0.866169 19.6083 0
0 19.2 0
0.434142 19.2024 0
0 19.6 0
0.432966 19.604 0
5.23131 20.4073 0
5.66612 20.4043 0
5.23046 20.8047 0
5.66527 20.8023 0
5.66612 20.4043 0
6.1 20.4 0
5.66527 20.8023 0
6.1 20.8 0
5.66527 20.8023 0
6.1 20.8 0
5.66429 21.2 0
6.1 21.2 0
5.23046 20.8047 0
5.66527 20.8023 0
5.22857 21.2 0
5.66429 21.2 0
1.30395 19.2062 0
1.73965 19.2079 0
1.30084 19.6116 0
1.73679 19.6143 0
0.868611 19.2046 0
1.30395 19.2062 0
0.866169 19.6083 0
1.30084 19.6116 0
2.17624 19.2085 0
2.61306 19.209 0
2.17407 19.6159 0
[...]
POINT_DATA 18624
SCALARS solution double 1
LOOKUP_TABLE default
8.526 8.23277 8.55422 8.27238 8.69446 8.526 8.82256 8.55422 8.76044 8.58258 8.69446 8.526 8.58258 8.23407 8.526 8.23277 2.26592 2.25263 2.26307 2.24536 2.27043 2.26592 2.27356 2.26307 2.27258 2.27539 2.27043 2.26592 2.27539 2.26601 2.26592 2.25263 7.87655 7.48977 7.94077 7.57702 8.23277 7.87655 8.27238 7.94077 8.23407 7.83042 8.23277 7.87655 7.83042 7.40704 7.87655 7.48977 2.23131 2.20348 2.22133 2.19221 2.25263 2.23131 2.24536 2.22133 2.26601 2.24626 2.25263 2.23131 2.24626 2.21854 2.23131 2.20348 7.09158 6.69396 7.19845 6.81714 7.48977 7.09158 7.57702 7.19845 7.40704 6.98111 7.48977 7.09158 6.98111 6.5625 7.09158 6.69396 2.17066 2.13412 2.15916 2.12313 2.20348 2.17066 2.19221 2.15916 2.21854 2.18498 2.20348 2.17066 2.18498 2.14718 2.17066 2.13412 6.30438 5.92736 6.44095 6.07483 6.69396 6.30438 6.81714 6.44095 6.5625 6.15705 6.69396 6.30438 6.15705 5.76806 6.30438 5.92736 2.09481 2.05339 2.08484 2.04481 2.13412 2.09481 2.12313 2.08484 2.14718 2.10628 2.13412 2.09481 2.10628 2.06303 2.09481 2.05339 5.56555 5.22034 5.72179 5.38352 5.92736 5.56555 6.07483 5.72179 5.76806 5.39726 5.92736 5.56555 5.39726 5.04531 5.56555 5.22034 2.01032 1.96597 2.00345 1.96109 2.05339 2.01032 2.04481 2.00345 2.06303 2.01787 2.05339 2.01032 2.01787 1.97106 2.01032 1.96597 4.89258 4.58369 5.06093 4.75467 5.22034 4.89258 5.38352 5.06093 5.04531 4.71209 5.22034 4.89258 4.71209 4.39634 4.89258 4.58369 1.92065 1.87475 1.91807 1.87483 1.96597 1.92065 1.96109 1.91807 1.97106 1.92277 1.96597 1.92065 1.92277 1.87323 1.92065 1.87475 3.17535 3.01822 3.24732 2.98336 3.37633 3.17535 3.46593 3.24732 3.29868 3.10559 3.37633 3.17535 3.10559 2.96626 3.17535 3.01822 4.30062 4.07549 4.46702 4.21728 4.58369 4.30062 4.75467 4.46702 4.39634 4.09425 4.58369 4.30062 4.09425 3.80361 4.30062 4.07549 2.77734 2.80034 2.80046 2.85925 2.80158 2.80819 2.77734 2.80034 2.81326 2.82247 2.80819 2.80034 2.82247 2.98336 2.80034 2.85925 1.65346 1.64148 1.6467 1.63422 1.6705 1.64773 1.65346 1.64148 1.64237 1.63577 1.64773 1.64148 1.63577 1.6273 1.64148 1.63422 1.82882 1.78363 1.83194 1.79014 1.87475 1.82882 1.87483 1.83194 1.87323 1.82297 1.87475 1.82882 1.82297 1.77293 1.82882 1.78363 1.70239 1.72382 1.67385 1.6705 1.70239 1.67385 1.68081 1.652 1.74155 1.70239 1.71344 1.68081 1.74155 1.77293 1.70239 1.72382 2.84453 2.84311 2.88725 2.88531 2.81326 2.80819 2.84453 2.84311 2.80158 2.84071 2.80819 2.84311 2.84071 2.88235 2.84311 2.88531 1.63627 1.62671 1.63577 1.6273 1.64405 1.63627 1.64237 1.63577 1.65111 1.64217 1.64405 1.63627 1.64217 1.63169 1.63627 1.62671 2.88725 2.88531 2.93189 2.92716 2.88235 2.92108 2.88531 2.92716 2.92108 2.95344 2.92716 2.96471 1.65248 1.64133 1.64217 1.63169 1.66229 1.65248 1.65111 1.64217 1.67716 1.66697 1.66229 1.65248 1.66697 1.65531 1.65248 1.64133 3.53453 3.29868 3.57842 3.37633 3.57842 3.37633 3.6396 3.46593 3.57842 3.6396 3.7672 3.74992 3.53453 3.57842 3.80361 3.7672 2.97679 2.99482 2.95344 2.96471 2.98976 3.01521 2.97679 2.99482 1.68653 1.67441 1.66697 1.65531 1.69667 1.68653 1.67716 1.66697 1.71283 1.70018 1.68653 1.67441 2.99235 3.02501 2.98976 3.01521 2.98547 3.02462 2.99235 3.02501 1.74746 1.73412 1.71283 1.70018 1.79085 1.77671 1.74746 1.73412 2.98547 2.97041 3.02462 3.01518 2.97041 2.94848 3.01518 2.998 1.84205 1.82711 1.79085 1.77671 1.89932 1.8837 1.84205 1.82711 2.9208 2.97434 2.94848 2.998 2.88828 2.94526 2.9208 2.97434 1.96082 1.94466 1.89932 1.8837 2.02496 2.00838 1.96082 1.94466 2.88828 2.85165 2.94526 2.9116 2.85165 2.81143 2.9116 2.87402 2.09049 2.07355 2.02496 2.00838 2.15643 2.13919 2.09049 2.07355 2.81143 2.76803 2.87402 2.83299 2.76803 2.72177 2.83299 2.7889 2.22207 2.20453 2.15643 2.13919 2.28685 2.26904 2.22207 2.20453 2.67287 2.74203 2.72177 2.7889 2.6215 2.69258 2.67287 2.74203 2.3504 2.33229 2.28685 2.26904 2.41241 2.39399 2.3504 2.33229 2.5678 2.64071 2.6215 2.69258 2.51189 2.58656 2.5678 2.64071 2.47267 2.45391 2.41241 2.39399 2.531 2.51189 2.47267 2.45391 3.93934 3.83026 4.10993 3.96372 4.07549 3.93934 4.21728 4.10993 3.80361 3.7672 4.07549 3.93934 3.7672 3.74992 3.93934 3.83026 3.6396 3.46593 3.7193 3.69678 3.7193 3.69678 3.83026 3.96372 3.6396 3.7193 3.74992 3.83026 1.74155 1.75853 1.77293 1.78363 1.74155 1.71344 1.75853 1.75029 1.75853 1.75029 1.78363 1.79014 2.96626 2.89663 3.01822 2.92782 2.89663 2.80046 2.92782 2.85925 3.01822 2.92782 2.98336 2.85925 2.531 2.57483 2.51189 2.58656 1.6611 1.65346 1.65413 1.6467 1.67385 1.6611 1.652 1.65413 1.67385 1.6705 1.6611 1.65346 61.6616 61.8238 61.0449 61.1227 61.5175 61.6616 60.9613 61.0449 61.391 61.5175 60.8729 60.9613 61.2768 61.391 60.788 60.8729 58.5809 58.6225 57.8308 57.8744 58.5032 58.5809 57.7419 57.8308 59.3258 59.392 58.5032 58.5809 59.392 59.4335 58.5809 58.6225 60.1796 60.2369 59.392 59.4335 60.1133 60.1796 59.3258 59.392 60.788 60.8729 60.1133 60.1796 60.8729 60.9613 60.1796 60.2369 60.3812 60.4561 59.6744 59.7659 59.6744 59.7659 58.7736 58.8935 59.5822 59.6744 58.6563 58.7736 60.3088 60.3812 59.5822 59.6744 60.2953 60.2524 59.3627 59.2825 61.2388 61.2612 60.2953 60.2524 61.2612 61.2418 60.2524 60.181 60.2524 60.181 59.2825 59.1811 58.6563 58.7736 57.4772 57.6628 58.7736 58.8935 57.6628 57.8641 57.6628 57.8641 56.2678 56.7881 61.8238 62.0045 61.1227 61.1906 62.0045 62.2001 61.1906 61.2388 62.3926 62.5363 61.2612 61.2418 62.2001 62.3926 61.2388 61.2612 60.867 60.9279 60.3812 60.4561 60.8166 60.867 60.3088 60.3812 59.3627 59.2825 58.4341 58.3069 59.2825 59.1811 58.3069 58.1505 58.3069 58.1505 57.3349 56.9722 58.4341 58.3069 57.5712 57.3349 60.9997 61.0814 60.5353 60.6177 60.9279 60.9997 60.4561 60.5353 61.1739 61.2768 60.703 60.788 61.0814 61.1739 60.6177 60.703 60.5353 60.6177 59.8596 59.949 59.8596 59.949 59.0191 59.1328 59.7659 59.8596 58.8935 59.0191 60.4561 60.5353 59.7659 59.8596 58.3905 58.5032 57.6042 57.7419 58.2421 58.3905 57.4106 57.6042 59.1328 59.2401 58.2421 58.3905 59.2401 59.3258 58.3905 58.5032 60.6177 60.703 59.949 60.0365 60.703 60.788 60.0365 60.1133 60.0365 60.1133 59.2401 59.3258 59.949 60.0365 59.1328 59.2401 60.3101 60.2953 59.4168 59.3627 60.3008 60.3101 59.4454 59.4168 61.1227 61.1906 60.3008 60.3101 61.1906 61.2388 60.3101 60.2953 57.8641 58.0625 56.7881 57.1474 58.8935 59.0191 57.8641 58.0625 59.0191 59.1328 58.0625 58.2421 58.0625 58.2421 57.1474 57.4106 59.4515 59.4454 58.6283 58.5968 58.6283 58.5968 57.8734 57.8263 58.6225 58.6283 57.8744 57.8734 59.4335 59.4515 58.6225 58.6283 59.4454 59.4168 58.5968 58.5323 59.4168 59.3627 58.5323 58.4341 58.5323 58.4341 57.7285 57.5712 58.5968 58.5323 57.8263 57.7285 60.2369 60.2748 59.4335 59.4515 60.9613 61.0449 60.2369 60.2748 61.0449 61.1227 60.2748 60.3008 60.2748 60.3008 59.4515 59.4454 45.4795 45.196 47.1187 46.9418 45.196 44.8276 46.9418 46.7527 46.9418 46.7527 48.6263 48.5763 47.1187 46.9418 48.6735 48.6263 49.1049 49.0418 49.7104 49.6899 49.0418 48.9824 49.6899 49.6779 48.9824 48.9239 49.6779 49.6758 48.9239 48.8695 49.6758 49.687 47.2811 47.1187 48.72 48.6735 47.4285 47.2811 48.7669 48.72 45.9139 45.713 47.4285 47.2811 45.713 45.4795 47.2811 47.1187 48.0432 47.9291 49.0418 48.9824 48.1525 48.0432 49.1049 49.0418 46.9023 46.7259 48.1525 48.0432 46.7259 46.567 48.0432 47.9291 48.6735 48.6263 49.9231 50.0414 48.6263 48.5763 50.0414 50.1765 47.8128 47.6929 48.9239 48.8695 47.9291 47.8128 48.9824 48.9239 46.567 46.4133 47.9291 47.8128 46.4133 46.2571 47.8128 47.6929 48.7669 48.72 49.7603 49.8292 48.72 48.6735 49.8292 49.9231 48.5763 48.5226 50.1765 50.31 48.5226 48.4575 50.31 50.4115 46.5635 46.3756 48.5226 48.4575 46.7527 46.5635 48.5763 48.5226 44.8276 44.2833 46.7527 46.5635 49.2383 49.1694 49.7694 49.7372 49.1694 49.1049 49.7372 49.7104 47.1134 46.9023 48.2604 48.1525 48.2604 48.1525 49.1694 49.1049 48.3716 48.2604 49.2383 49.1694 47.3182 47.1134 48.3716 48.2604 48.8695 48.8167 49.687 49.7141 48.8167 48.7669 49.7141 49.7603 47.5646 47.4285 48.8167 48.7669 47.6929 47.5646 48.8695 48.8167 46.2571 46.0927 47.6929 47.5646 46.0927 45.9139 47.5646 47.4285 195.842 195.774 194.47 194.402 194.47 194.402 192.619 192.552 194.492 194.47 192.642 192.619 195.865 195.842 194.492 194.47 189.787 189.301 191.745 191.249 189.301 188.745 191.249 190.696 191.249 190.696 192.678 192.127 191.745 191.249 193.182 192.678 186.681 186.137 189.301 188.745 187.138 186.681 189.787 189.301 183.633 183.192 187.138 186.681 183.192 182.685 186.681 186.137 196.771 195.753 196.66 195.641 196.66 195.641 196.507 195.489 197.332 196.66 197.174 196.507 197.445 196.771 197.332 196.66 187.472 186.991 184.118 183.713 189.991 189.479 187.472 186.991 189.479 188.922 186.991 186.469 186.991 186.469 183.713 183.248 192.432 192.356 194.388 194.316 194.388 194.316 195.822 195.753 194.416 194.388 195.848 195.822 192.466 192.432 194.416 194.388 186.964 186.857 182.752 182.58 186.857 186.694 182.58 182.343 182.58 182.343 177.015 176.708 182.752 182.58 177.258 177.015 193.68 193.213 192.307 191.841 192.307 191.841 190.457 189.991 192.728 192.307 190.879 190.457 194.101 193.68 192.728 192.307 187.516 187.138 190.191 189.787 187.84 187.516 190.554 190.191 184.223 183.955 187.84 187.516 183.955 183.633 187.516 187.138 197.517 197.494 196.851 196.829 197.494 197.426 196.829 196.761 196.829 196.761 195.842 195.774 196.851 196.829 195.865 195.842 197.517 197.903 197.494 197.881 197.903 198.035 197.881 198.012 197.881 198.012 197.813 197.944 197.494 197.881 197.426 197.813 191.841 191.329 189.991 189.479 193.213 192.701 191.841 191.329 192.701 192.145 191.329 190.772 191.329 190.772 189.479 188.922 193.688 193.131 192.701 192.145 194.2 193.688 193.213 192.701 194.865 194.353 194.2 193.688 194.353 193.796 193.688 193.131 190.13 190.029 186.857 186.694 190.186 190.13 186.964 186.857 192.642 192.619 190.186 190.13 192.619 192.552 190.13 190.029 192.18 191.745 193.638 193.182 192.57 192.18 194.047 193.638 190.554 190.191 192.57 192.18 190.191 189.787 192.18 191.745 196.862 195.848 196.839 195.822 196.839 195.822 196.771 195.753 197.513 196.839 197.445 196.771 197.535 196.862 197.513 196.839 198.035 197.916 198.012 197.893 197.916 197.535 197.893 197.513 197.893 197.513 197.826 197.445 198.012 197.893 197.944 197.826 196.129 196.516 195.753 196.14 196.461 196.847 196.129 196.516 196.847 196.979 196.516 196.647 196.516 196.647 196.14 196.271 195.076 194.047 194.664 193.638 194.664 193.638 194.204 193.182 195.35 194.664 194.883 194.204 195.771 195.076 195.35 194.664 192.227 192.064 194.199 194.04 194.199 194.04 195.641 195.489 194.316 194.199 195.753 195.641 192.356 192.227 194.316 194.199 195.252 195.383 194.74 194.871 194.74 194.871 194.183 194.314 194.353 194.74 193.796 194.183 194.865 195.252 194.353 194.74 194.371 193.696 193.815 193.142 194.883 194.204 194.371 193.696 194.204 193.182 193.696 192.678 193.696 192.678 193.142 192.127 195.753 195.331 195.088 194.666 195.331 194.865 194.666 194.2 194.666 194.2 193.68 193.213 195.088 194.666 194.101 193.68 190.457 189.991 187.854 187.472 187.854 187.472 184.404 184.118 188.191 187.854 184.541 184.404 190.879 190.457 188.191 187.854 196.14 196.271 195.718 195.849 195.718 195.849 195.252 195.383 195.331 195.718 194.865 195.252 195.753 196.14 195.331 195.718 197.314 197.156 196.648 196.49 196.648 196.49 195.661 195.503 196.761 196.648 195.774 195.661 197.426 197.314 196.761 196.648 196.148 195.438 195.771 195.076 196.479 195.755 196.148 195.438 195.755 194.684 195.438 194.383 195.438 194.383 195.076 194.047 194.871 194.752 194.314 194.195 195.383 195.264 194.871 194.752 195.264 194.883 194.752 194.371 194.752 194.371 194.195 193.815 197.713 197.332 197.555 197.174 197.832 197.713 197.674 197.555 197.944 197.826 197.832 197.713 197.826 197.445 197.713 197.332 197.7 197.832 197.543 197.674 197.314 197.7 197.156 197.543 197.426 197.813 197.314 197.7 197.813 197.944 197.7 197.832 195.849 195.731 195.383 195.264 196.271 196.152 195.849 195.731 196.152 195.771 195.731 195.35 195.731 195.35 195.264 194.883 196.86 196.479 196.528 196.148 196.528 196.148 196.152 195.771 196.647 196.528 196.271 196.152 196.979 196.86 196.647 196.528 195.464 195.088 194.477 194.101 195.795 195.464 194.807 194.477 196.461 196.129 195.795 195.464 196.129 195.753 195.464 195.088 196.49 196.287 195.503 195.301 197.156 196.953 196.49 196.287 196.953 196.704 196.287 196.039 196.287 196.039 195.301 195.053 197.156 197.543 196.953 197.339 197.543 197.674 197.339 197.471 197.339 197.471 197.091 197.223 196.953 197.339 196.704 197.091 193.104 192.728 191.255 190.879 193.435 193.104 191.586 191.255 194.807 194.477 193.435 193.104 194.477 194.101 193.104 192.728 197.352 196.971 197.104 196.723 197.471 197.352 197.223 197.104 197.674 197.555 197.471 197.352 197.555 197.174 197.352 196.971 196.586 196.461 195.921 195.795 195.921 195.795 194.934 194.807 196.039 195.921 195.053 194.934 196.704 196.586 196.039 195.921 195.661 195.503 194.288 194.13 194.288 194.13 192.435 192.274 194.402 194.288 192.552 192.435 195.774 195.661 194.402 194.288 197.091 197.223 196.973 197.105 196.973 197.105 196.847 196.979 196.586 196.973 196.461 196.847 196.704 197.091 196.586 196.973 197.223 197.104 197.105 196.986 197.104 196.723 196.986 196.603 196.986 196.603 196.86 196.479 197.105 196.986 196.979 196.86 193.854 193.632 195.309 195.093 194.04 193.854 195.489 195.309 192.064 191.863 194.04 193.854 191.863 191.628 193.854 193.632 196.507 195.489 196.314 195.309 196.314 195.309 196.082 195.093 196.971 196.314 196.723 196.082 197.174 196.507 196.971 196.314 192.435 192.274 189.852 189.626 189.852 189.626 186.437 186.058 190.029 189.852 186.694 186.437 192.552 192.435 190.029 189.852 191.146 190.864 193.191 192.898 190.864 190.554 192.898 192.57 192.898 192.57 194.383 194.047 193.191 192.898 194.684 194.383 194.934 194.807 193.564 193.435 193.564 193.435 191.717 191.586 193.684 193.564 191.84 191.717 195.053 194.934 193.684 193.564 193.929 193.684 192.079 191.84 194.13 193.929 192.274 192.079 195.503 195.301 194.13 193.929 195.301 195.053 193.929 193.684 186.404 186.333 189.857 189.811 186.333 186.223 189.811 189.72 189.811 189.72 192.432 192.356 189.857 189.811 192.466 192.432 183.633 178.961 183.192 178.609 178.961 172.866 178.609 172.574 178.609 172.574 178.145 172.198 183.192 178.609 182.685 178.145 196.723 196.082 196.603 195.925 196.082 195.093 195.925 194.893 195.925 194.893 195.755 194.684 196.603 195.925 196.479 195.755 191.391 191.146 193.421 193.191 193.421 193.191 194.893 194.684 193.632 193.421 195.093 194.893 191.628 191.391 193.632 193.421 179.422 179.036 173.843 173.544 179.738 179.422 174.068 173.843 184.118 183.713 179.738 179.422 183.713 183.248 179.422 179.036 189.379 189.145 192.064 191.863 185.808 185.513 189.379 189.145 185.513 185.218 189.145 188.872 189.145 188.872 191.863 191.628 181.864 175.914 181.741 175.717 181.741 175.717 181.568 175.451 186.333 181.741 186.223 181.568 186.404 181.864 186.333 181.741 189.72 189.576 192.356 192.227 186.223 186.051 189.72 189.576 186.051 185.808 189.576 189.379 189.576 189.379 192.227 192.064 179.437 173.218 179.242 173.051 179.242 173.051 178.961 172.866 183.955 179.242 183.633 178.961 184.223 179.437 183.955 179.242 174.733 174.285 167.377 166.94 174.285 173.98 166.94 166.515 175.286 174.733 167.945 167.377 191.717 191.586 188.602 188.397 188.602 188.397 184.248 183.931 188.795 188.602 184.549 184.248 191.84 191.717 188.795 188.602 180.259 179.905 174.733 174.285 184.549 184.248 180.259 179.905 184.248 183.931 179.905 179.557 179.905 179.557 174.285 173.98 185.808 180.97 185.513 180.661 180.97 174.556 180.661 174.179 180.661 174.179 180.357 173.925 185.513 180.661 185.218 180.357 180.956 180.259 175.286 174.733 181.558 180.956 175.845 175.286 186.058 185.347 181.558 180.956 185.347 184.549 180.956 180.259 183.931 184.299 179.557 179.827 184.299 184.541 179.827 179.974 179.827 179.974 174.089 174.194 179.557 179.827 173.98 174.089 192.079 191.84 189.234 188.795 189.234 188.795 185.347 184.549 189.626 189.234 186.058 185.347 192.274 192.079 189.626 189.234 179.623 173.334 179.437 173.218 184.464 179.623 184.223 179.437 184.693 179.815 184.464 179.623 179.815 173.483 179.623 173.334 179.936 179.738 174.19 174.068 179.974 179.936 174.194 174.19 184.541 184.404 179.974 179.936 184.404 184.118 179.936 179.738 188.381 188.122 191.146 190.864 184.693 184.464 188.381 188.122 184.464 184.223 188.122 187.84 188.122 187.84 190.864 190.554 186.437 186.058 182.014 181.558 182.014 181.558 176.318 175.845 182.343 182.014 176.708 176.318 186.694 186.437 182.343 182.014 188.317 188.191 184.299 184.541 188.397 188.317 183.931 184.299 191.586 191.255 188.397 188.317 191.255 190.879 188.317 188.191 181.568 175.451 181.303 175.078 181.303 175.078 180.97 174.556 186.051 181.303 185.808 180.97 186.223 181.568 186.051 181.303 185.218 184.968 188.872 188.641 184.968 184.693 188.641 188.381 188.641 188.381 191.391 191.146 188.872 188.641 191.628 191.391 184.968 180.093 184.693 179.815 185.218 180.357 184.968 180.093 180.357 173.925 180.093 173.68 180.093 173.68 179.815 173.483 47.6853 47.0566 51.9484 53.0994 48.4575 47.6853 50.4115 51.9484 46.3756 44.4854 48.4575 47.6853 44.4854 43.3288 47.6853 47.0566 59.1811 57.4983 58.1505 55.7674 57.4983 55.9618 55.7674 53.78 58.1505 55.7674 56.9722 52.6222 61.2418 61.335 60.181 59.0451 60.181 59.0451 59.1811 57.4983 63.163 66.5781 61.335 62.3501 62.5363 63.163 61.2418 61.335 1.72382 4.83642 1.6705 1.64773 1.77293 7.75435 1.72382 4.83642 7.78522 1.64237 4.83642 1.64773 6.37571 10.9438 2.27258 2.27539 43.0258 39.3254 34.1389 30.7791 45.9476 43.0258 36.177 34.1389 45.9476 56.9722 43.0258 52.6222 43.0258 52.6222 39.3254 48.7196 6.72706 3.24732 2.82247 2.98336 9.76455 6.72706 2.81326 2.82247 10.8376 3.46593 6.72706 3.24732 1.82297 9.79292 1.77293 7.75435 36.177 34.1389 27.9282 25.6781 23.7019 20.3095 31.7082 27.0404 31.7082 27.0404 39.3254 30.7791 27.0404 22.2748 30.7791 22.3731 20.3095 17.2881 27.0404 22.2748 17.2881 14.7818 22.2748 22.3731 24.0062 29.3884 20.0875 27.9282 35.9871 36.177 29.3884 27.9282 23.7019 25.9375 16.7479 15.1592 23.7019 16.7479 20.3095 12.7691 3.00146 3.01488 2.97346 2.98775 3.01488 3.02693 2.98775 3.00075 2.97346 2.98775 2.94526 2.96042 2.98775 3.00075 2.96042 2.97434 3.02693 3.03747 3.00075 3.01231 3.03747 3.04637 3.01231 3.02232 3.00075 3.01231 2.97434 2.98691 3.01231 3.02232 2.98691 2.998 2.04002 2.0327 2.00731 2.00022 2.0327 2.02496 2.00022 1.99265 2.00731 2.00022 1.97503 1.96819 2.00022 1.99265 1.96819 1.96082 2.97092 2.94134 2.95399 2.9237 2.94134 2.9116 2.9237 2.89327 2.95399 2.9237 2.93607 2.90511 2.9237 2.89327 2.90511 2.87402 3.00146 2.97346 2.98677 2.95795 2.97346 2.94526 2.95795 2.92896 2.98677 2.95795 2.97092 2.94134 2.95795 2.92896 2.94134 2.9116 2.10623 2.09853 2.07304 2.06552 2.09853 2.09049 2.06552 2.05763 2.07304 2.06552 2.04002 2.0327 2.06552 2.05763 2.0327 2.02496 2.17274 2.16472 2.1395 2.13163 2.16472 2.15643 2.13163 2.12346 2.1395 2.13163 2.10623 2.09853 2.13163 2.12346 2.09853 2.09049 2.89751 2.86531 2.87698 2.8442 2.86531 2.83299 2.8442 2.81131 2.87698 2.8442 2.85568 2.82234 2.8442 2.81131 2.82234 2.7889 2.93607 2.90511 2.91723 2.88563 2.90511 2.87402 2.88563 2.85391 2.91723 2.88563 2.89751 2.86531 2.88563 2.85391 2.86531 2.83299 2.23885 2.23056 2.20588 2.19772 2.23056 2.22207 2.19772 2.18933 2.20588 2.19772 2.17274 2.16472 2.19772 2.18933 2.16472 2.15643 2.30407 2.29554 2.2716 2.26319 2.29554 2.28685 2.26319 2.2546 2.2716 2.26319 2.23885 2.23056 2.26319 2.2546 2.23056 2.22207 2.72804 2.75259 2.69258 2.71762 2.75259 2.7765 2.71762 2.74203 2.8109 2.83364 2.7765 2.79976 2.83364 2.85568 2.79976 2.82234 2.7765 2.79976 2.74203 2.7658 2.79976 2.82234 2.7658 2.7889 2.36801 2.35927 2.33622 2.32759 2.35927 2.3504 2.32759 2.3188 2.33622 2.32759 2.30407 2.29554 2.32759 2.3188 2.29554 2.28685 2.42147 2.41241 2.39058 2.38161 2.39058 2.38161 2.35927 2.3504 2.62386 2.65076 2.58656 2.61392 2.65076 2.67711 2.61392 2.64071 2.67711 2.70287 2.64071 2.66694 2.70287 2.72804 2.66694 2.69258 2.48191 2.47267 2.45192 2.44277 2.45192 2.44277 2.42147 2.41241 2.54045 2.531 2.51143 2.50208 2.51143 2.50208 2.481