# vtk DataFile Version 3.0
#This file was generated by the deal.II library on 2020/5/26 at 18:52:09
ASCII
DATASET UNSTRUCTURED_GRID

POINTS 11628 double
0.45119 0.4 0
0.902381 0.4 0
0.435714 0.8 0
0.871429 0.8 0
0 0.4 0
0.45119 0.4 0
0 0.8 0
0.435714 0.8 0
0 0 0
0.466667 0 0
0 0.4 0
0.45119 0.4 0
0.466667 0 0
0.933333 0 0
0.45119 0.4 0
0.902381 0.4 0
0.483333 23.6 0
0.966667 23.6 0
0.466667 24 0
0.933333 24 0
0 23.6 0
0.483333 23.6 0
0 24 0
0.466667 24 0
0 23.2 0
0.5 23.2 0
0 23.6 0
0.483333 23.6 0
0.5 23.2 0
1 23.2 0
0.483333 23.6 0
0.966667 23.6 0
1.35357 0.4 0
1.80476 0.4 0
1.30714 0.8 0
1.74286 0.8 0
0.902381 0.4 0
1.35357 0.4 0
0.871429 0.8 0
1.30714 0.8 0
0.933333 0 0
1.4 0 0
0.902381 0.4 0
1.35357 0.4 0
1.4 0 0
1.86667 0 0
1.35357 0.4 0
1.80476 0.4 0
1.45 23.6 0
1.93333 23.6 0
1.4 24 0
1.86667 24 0
0.966667 23.6 0
1.45 23.6 0
0.933333 24 0
1.4 24 0
1 23.2 0
1.5 23.2 0
0.966667 23.6 0
1.45 23.6 0
1.5 23.2 0
2 23.2 0
1.45 23.6 0
1.93333 23.6 0
2.25595 0.4 0
2.70714 0.4 0
2.17857 0.8 0
2.61429 0.8 0
1.80476 0.4 0
2.25595 0.4 0
1.74286 0.8 0
2.17857 0.8 0
1.86667 0 0
2.33333 0 0
1.80476 0.4 0
2.25595 0.4 0
2.33333 0 0
2.8 0 0
2.25595 0.4 0
2.70714 0.4 0
2.41667 23.6 0
2.9 23.6 0
2.33333 24 0
2.8 24 0
1.93333 23.6 0
2.41667 23.6 0
1.86667 24 0
2.33333 24 0
2 23.2 0
2.5 23.2 0
1.93333 23.6 0
2.41667 23.6 0
2.5 23.2 0
3 23.2 0
2.41667 23.6 0
2.9 23.6 0
3.15833 0.4 0
3.60952 0.4 0
3.05 0.8 0
3.48571 0.8 0
2.70714 0.4 0
3.15833 0.4 0
2.61429 0.8 0
3.05 0.8 0
2.8 0 0
3.26667 0 0
2.70714 0.4 0
3.15833 0.4 0
3.26667 0 0
3.73333 0 0
3.15833 0.4 0
3.60952 0.4 0
3.38333 23.6 0
3.86667 23.6 0
3.26667 24 0
3.73333 24 0
2.9 23.6 0
3.38333 23.6 0
2.8 24 0
3.26667 24 0
3 23.2 0
3.5 23.2 0
2.9 23.6 0
3.38333 23.6 0
3.5 23.2 0
4 23.2 0
3.38333 23.6 0
3.86667 23.6 0
4.06071 0.400002 0
4.51187 0.400017 0
3.92143 0.8 0
4.35714 0.8 0
3.60952 0.4 0
4.06071 0.400002 0
3.48571 0.8 0
3.92143 0.8 0
3.73333 0 0
4.2 0 0
3.60952 0.4 0
4.06071 0.400002 0
4.2 0 0
4.66667 0 0
4.06071 0.400002 0
4.51187 0.400017 0
4.35 23.6 0
4.83333 23.6 0
4.2 24 0
4.66667 24 0
3.86667 23.6 0
4.35 23.6 0
3.73333 24 0
4.2 24 0
4 23.2 0
4.5 23.2 0
3.86667 23.6 0
4.35 23.6 0
4.5 23.2 0
5 23.2 0
4.35 23.6 0
4.83333 23.6 0
4.96274 0.40018 0
5.412 0.401188 0
4.79286 0.8 0
5.22857 0.8 0
4.51187 0.400017 0
4.96274 0.40018 0
4.35714 0.8 0
4.79286 0.8 0
4.66667 0 0
5.13333 0 0
4.51187 0.400017 0
4.96274 0.40018 0
5.13333 0 0
5.6 0 0
4.96274 0.40018 0
5.412 0.401188 0
5.31667 23.6 0
5.8 23.6 0
5.13333 24 0
5.6 24 0
4.83333 23.6 0
5.31667 23.6 0
4.66667 24 0
5.13333 24 0
5 23.2 0
5.5 23.2 0
4.83333 23.6 0
5.31667 23.6 0
5.5 23.2 0
6 23.2 0
5.31667 23.6 0
5.8 23.6 0
7.7656 0.408656 0
8.08564 0.489853 0
7.625 0.8 0
8 0.8 0
7.37297 0.372717 0
7.7656 0.408656 0
7.25 0.8 0
7.625 0.8 0
7.46667 0 0
7.93333 0 0
7.37297 0.372717 0
7.7656 0.408656 0
7.93333 0 0
8.4 0 0
7.7656 0.408656 0
8.08564 0.489853 0
5.851 0.407784 0
6.22598 0.450874 0
5.66429 0.8 0
6.1 0.8 0
5.412 0.401188 0
5.851 0.407784 0
5.22857 0.8 0
5.66429 0.8 0
5.6 0 0
6.06667 0 0
5.412 0.401188 0
5.851 0.407784 0
6.06667 0 0
6.53333 0 0
5.851 0.407784 0
6.22598 0.450874 0
8.4 1.5 0
8.20238 1.40048 0
8.4 1 0
8.21539 0.946782 0
8.4 2 0
8.20022 1.8875 0
8.4 1.5 0
8.20238 1.40048 0
8 1.77391 0
8 1.28696 0
8.20022 1.8875 0
8.20238 1.40048 0
8 1.28696 0
8 0.8 0
8.20238 1.40048 0
8.21539 0.946782 0
8.21496 23.0543 0
8.2025 22.599 0
8.4 23 0
8.4 22.5 0
8 23.2 0
8 22.713 0
8.21496 23.0543 0
8.2025 22.599 0
8 22.2261 0
8.20035 22.1121 0
8 22.713 0
8.2025 22.599 0
8.20035 22.1121 0
8.4 22 0
8.2025 22.599 0
8.4 22.5 0
6.28333 23.6 0
6.76667 23.6 0
6.06667 24 0
6.53333 24 0
5.8 23.6 0
6.28333 23.6 0
5.6 24 0
6.06667 24 0
6 23.2 0
6.5 23.2 0
5.8 23.6 0
6.28333 23.6 0
6.5 23.2 0
7 23.2 0
6.28333 23.6 0
6.76667 23.6 0
7.69489 23.5856 0
7.5 23.2 0
8.06391 23.5091 0
8 23.2 0
7.69489 23.5856 0
8.06391 23.5091 0
7.93333 24 0
8.4 24 0
7.23333 23.6 0
7.69489 23.5856 0
7.46667 24 0
7.93333 24 0
7.23333 23.6 0
7 23.2 0
7.69489 23.5856 0
7.5 23.2 0
8 2.26087 0
8.20003 2.3805 0
8 2.74783 0
8.2 2.87391 0
8 1.77391 0
8.20022 1.8875 0
8 2.26087 0
8.20003 2.3805 0
8.4 2 0
8.4 2.5 0
8.20022 1.8875 0
8.20003 2.3805 0
8.4 2.5 0
8.4 3 0
8.20003 2.3805 0
8.2 2.87391 0
8.20005 21.6194 0
8.4 21.5 0
8.20035 22.1121 0
8.4 22 0
8 21.7391 0
8.20005 21.6194 0
8 22.2261 0
8.20035 22.1121 0
8 21.2522 0
8.2 21.1261 0
8 21.7391 0
8.20005 21.6194 0
8.2 21.1261 0
8.4 21 0
8.20005 21.6194 0
8.4 21.5 0
8 3.23478 0
8.2 3.36739 0
8 3.72174 0
8.2 3.86087 0
8 2.74783 0
8.2 2.87391 0
8 3.23478 0
8.2 3.36739 0
8.4 3 0
8.4 3.5 0
8.2 2.87391 0
8.2 3.36739 0
8.4 3.5 0
8.4 4 0
8.2 3.36739 0
8.2 3.86087 0
8.2 20.6326 0
8.4 20.5 0
8.2 21.1261 0
8.4 21 0
8 20.7652 0
8.2 20.6326 0
8 21.2522 0
8.2 21.1261 0
8 20.2783 0
8.2 20.1391 0
8 20.7652 0
8.2 20.6326 0
8.2 20.1391 0
8.4 20 0
8.2 20.6326 0
8.4 20.5 0
7 0 0
7.46667 0 0
7.00198 0.331094 0
7.37297 0.372717 0
7.00198 0.331094 0
7.37297 0.372717 0
6.94022 0.576588 0
7.25 0.8 0
7.00198 0.331094 0
6.94022 0.576588 0
6.69426 0.367442 0
6.75692 0.535711 0
7 0 0
7.00198 0.331094 0
6.53333 0 0
6.69426 0.367442 0
8.4 4.5 0
8.2 4.35435 0
8.4 4 0
8.2 3.86087 0
8.4 5 0
8.2 4.84783 0
8.4 4.5 0
8.2 4.35435 0
8 4.69565 0
8 4.2087 0
8.2 4.84783 0
8.2 4.35435 0
8 4.2087 0
8 3.72174 0
8.2 4.35435 0
8.2 3.86087 0
8.2 19.6457 0
8.4 19.5 0
8.2 20.1391 0
8.4 20 0
8 19.7913 0
8.2 19.6457 0
8 20.2783 0
8.2 20.1391 0
8 19.3043 0
8.2 19.1522 0
8 19.7913 0
8.2 19.6457 0
8.2 19.1522 0
8.4 19 0
8.2 19.6457 0
8.4 19.5 0
8.4 5.5 0
8.2 5.3413 0
8.4 5 0
8.2 4.84783 0
8.4 6 0
8.2 5.83478 0
8.4 5.5 0
8.2 5.3413 0
8.2 18.6587 0
8.4 18.5 0
8.2 19.1522 0
8.4 19 0
8 18.8174 0
8.2 18.6587 0
8 19.3043 0
8.2 19.1522 0
8.2 18.1652 0
8.4 18 0
8.2 18.6587 0
8.4 18.5 0
8.4 6 0
8.4 6.5 0
8.2 5.83478 0
8.2 6.32826 0
8.4 6.5 0
8.4 7 0
8.2 6.32826 0
8.2 6.82174 0
8.2 17.6717 0
8.4 17.5 0
8.2 18.1652 0
8.4 18 0
8.2 17.1783 0
8.4 17 0
8.2 17.6717 0
8.4 17.5 0
8.4 7.5 0
8.2 7.31522 0
8.4 7 0
8.2 6.82174 0
8.4 8 0
8.2 7.8087 0
8.4 7.5 0
8.2 7.31522 0
8.2 16.6848 0
8.4 16.5 0
8.2 17.1783 0
8.4 17 0
8.2 16.1913 0
8.4 16 0
8.2 16.6848 0
8.4 16.5 0
8.4 8 0
8.4 8.5 0
8.2 7.8087 0
8.2 8.30217 0
8.4 8.5 0
8.4 9 0
8.2 8.30217 0
8.2 8.79565 0
8.2 15.6978 0
8.4 15.5 0
8.2 16.1913 0
8.4 16 0
8.2 15.2043 0
8.4 15 0
8.2 15.6978 0
8.4 15.5 0
8.4 9 0
8.4 9.5 0
8.2 8.79565 0
8.2 9.28913 0
8.4 9.5 0
8.4 10 0
8.2 9.28913 0
8.2 9.78261 0
8.2 14.7109 0
8.4 14.5 0
8.2 15.2043 0
8.4 15 0
8.2 14.2174 0
8.4 14 0
8.2 14.7109 0
8.4 14.5 0
8.4 10.5 0
8.2 10.2761 0
8.4 10 0
8.2 9.78261 0
8.4 11 0
8.2 10.7696 0
8.4 10.5 0
8.2 10.2761 0
8.2 13.7239 0
8.4 13.5 0
8.2 14.2174 0
8.4 14 0
8.2 13.2304 0
8.4 13 0
8.2 13.7239 0
8.4 13.5 0
8.4 11.5 0
8.2 11.263 0
8.4 11 0
8.2 10.7696 0
8.4 12 0
8.2 11.7565 0
8.4 11.5 0
8.2 11.263 0
8.2 12.737 0
8.4 12.5 0
8.2 13.2304 0
8.4 13 0
8.2 12.2435 0
8.4 12 0
8.2 12.737 0
8.4 12.5 0
6.47056 0.554541 0
6.65423 0.648139 0
6.3 0.8 0
6.5 0.8 0
6.22598 0.450874 0
6.47056 0.554541 0
6.1 0.8 0
6.3 0.8 0
6.53333 0 0
6.69426 0.367442 0
6.22598 0.450874 0
6.47056 0.554541 0
6.69426 0.367442 0
6.75692 0.535711 0
6.47056 0.554541 0
6.65423 0.648139 0
6.94022 0.576588 0
7.25 0.8 0
6.82768 0.687981 0
6.875 0.8 0
6.82768 0.687981 0
6.875 0.8 0
6.65423 0.648139 0
6.5 0.8 0
6.94022 0.576588 0
6.82768 0.687981 0
6.75692 0.535711 0
6.65423 0.648139 0
7.23333 23.6 0
7 23.7333 0
7 23.2 0
6.76667 23.6 0
7.23333 23.6 0
7.46667 24 0
7 23.7333 0
7 24 0
7 23.7333 0
7 24 0
6.76667 23.6 0
6.53333 24 0
8.4 0 0
8.4 0.5 0
8.08564 0.489853 0
8.24539 0.628305 0
8.4 0.5 0
8.4 1 0
8.24539 0.628305 0
8.21539 0.946782 0
8.08564 0.489853 0
8.24539 0.628305 0
8 0.8 0
8.21539 0.946782 0
8 12 0
8 11.513 0
8.13333 12 0
8.2 11.7565 0
8.2 12.2435 0
8.13333 12 0
8.4 12 0
8.2 11.7565 0
8 12.487 0
8 12 0
8.2 12.2435 0
8.13333 12 0
8.2409 23.3709 0
8.21496 23.0543 0
8.4 23.5 0
8.4 23 0
8.06391 23.5091 0
8.2409 23.3709 0
8.4 24 0
8.4 23.5 0
8.06391 23.5091 0
8 23.2 0
8.2409 23.3709 0
8.21496 23.0543 0
3.92285 19.2089 0
4.35873 19.2071 0
3.92402 19.6155 0
4.36024 19.6131 0
3.48654 19.2104 0
3.92285 19.2089 0
3.48709 19.6173 0
3.92402 19.6155 0
3.04979 19.2095 0
3.48654 19.2104 0
3.04963 19.6194 0
3.48709 19.6173 0
2.61306 19.209 0
3.04979 19.2095 0
2.61199 19.618 0
3.04963 19.6194 0
3.04985 20.8074 0
3.4864 20.8076 0
3.05 21.2 0
3.48571 21.2 0
2.6132 20.8075 0
3.04985 20.8074 0
2.61429 21.2 0
3.05 21.2 0
2.61227 20.4138 0
3.04975 20.4138 0
2.6132 20.8075 0
3.04985 20.8074 0
3.04975 20.4138 0
3.48707 20.4145 0
3.04985 20.8074 0
3.4864 20.8076 0
3.04974 20.0186 0
3.48724 20.0176 0
3.04975 20.4138 0
3.48707 20.4145 0
2.61181 20.0173 0
3.04974 20.0186 0
2.61227 20.4138 0
3.04975 20.4138 0
2.61199 19.618 0
3.04963 19.6194 0
2.61181 20.0173 0
3.04974 20.0186 0
3.04963 19.6194 0
3.48709 19.6173 0
3.04974 20.0186 0
3.48724 20.0176 0
0.432966 19.604 0
0.866169 19.6083 0
0.432331 20.0047 0
0.865158 20.0094 0
0.432331 20.0047 0
0.865158 20.0094 0
0.431771 20.4049 0
0.864168 20.4095 0
0 20 0
0.432331 20.0047 0
0 20.4 0
0.431771 20.4049 0
0 19.6 0
0.432966 19.604 0
0 20 0
0.432331 20.0047 0
5.23131 20.0079 0
5.66598 20.0043 0
5.23131 20.4073 0
5.66612 20.4043 0
5.23107 19.6073 0
5.66553 19.6034 0
5.23131 20.0079 0
5.66598 20.0043 0
5.66553 19.6034 0
6.1 19.6 0
5.66598 20.0043 0
6.1 20 0
5.66598 20.0043 0
6.1 20 0
5.66612 20.4043 0
6.1 20.4 0
0 20.8 0
0.433758 20.8025 0
0 21.2 0
0.435714 21.2 0
0 20.4 0
0.431771 20.4049 0
0 20.8 0
0.433758 20.8025 0
0.431771 20.4049 0
0.864168 20.4095 0
0.433758 20.8025 0
0.867586 20.8051 0
0.433758 20.8025 0
0.867586 20.8051 0
0.435714 21.2 0
0.871429 21.2 0
4.35873 19.2071 0
4.79445 19.2057 0
4.36024 19.6131 0
4.79575 19.61 0
4.79445 19.2057 0
5.22993 19.2041 0
4.79575 19.61 0
5.23107 19.6073 0
5.66501 19.202 0
6.1 19.2 0
5.66553 19.6034 0
6.1 19.6 0
5.22993 19.2041 0
5.66501 19.202 0
5.23107 19.6073 0
5.66553 19.6034 0
0.434142 19.2024 0
0.868611 19.2046 0
0.432966 19.604 0
0.866169 19.6083 0
0 19.2 0
0.434142 19.2024 0
0 19.6 0
0.432966 19.604 0
5.23131 20.4073 0
5.66612 20.4043 0
5.23046 20.8047 0
[...]
POINT_DATA 11628
SCALARS solution double 1
LOOKUP_TABLE default
8.52879 8.23552 8.55699 8.27512 8.69725 8.52879 8.82532 8.55699 8.7633 8.58544 8.69725 8.52879 8.58544 8.23685 8.52879 8.23552 2.26819 2.25489 2.26527 2.24752 2.27266 2.26819 2.27576 2.26527 2.27486 2.27775 2.27266 2.26819 2.27775 2.2684 2.26819 2.25489 7.87922 7.49233 7.94344 7.57959 8.23552 7.87922 8.27512 7.94344 8.23685 7.8331 8.23552 7.87922 7.8331 7.40959 7.87922 7.49233 2.23352 2.20559 2.22342 2.19419 2.25489 2.23352 2.24752 2.22342 2.2684 2.24862 2.25489 2.23352 2.24862 2.2208 2.23352 2.20559 7.09402 6.69628 7.20091 6.81948 7.49233 7.09402 7.57959 7.20091 7.40959 6.98353 7.49233 7.09402 6.98353 6.56479 7.09402 6.69628 2.17265 2.13597 2.16102 2.12484 2.20559 2.17265 2.19419 2.16102 2.2208 2.18711 2.20559 2.17265 2.18711 2.14916 2.17265 2.13597 6.30657 5.92944 6.44317 6.07694 6.69628 6.30657 6.81948 6.44317 6.56479 6.15921 6.69628 6.30657 6.15921 5.7701 6.30657 5.92944 2.09649 2.0549 2.0864 2.0462 2.13597 2.09649 2.12484 2.0864 2.14916 2.1081 2.13597 2.09649 2.1081 2.06466 2.09649 2.0549 5.56751 5.22219 5.72379 5.38541 5.92944 5.56751 6.07694 5.72379 5.7701 5.39918 5.92944 5.56751 5.39918 5.04712 5.56751 5.22219 2.01165 1.96712 2.00467 1.96213 2.0549 2.01165 2.0462 2.00467 2.06466 2.01931 2.0549 2.01165 2.01931 1.97231 2.01165 1.96712 4.89434 4.58536 5.06272 4.75639 5.22219 4.89434 5.38541 5.06272 5.04712 4.71379 5.22219 4.89434 4.71379 4.3979 4.89434 4.58536 1.92162 1.87553 1.91894 1.87553 1.96712 1.92162 1.96213 1.91894 1.97231 1.92383 1.96712 1.92162 1.92383 1.87407 1.92162 1.87553 3.17588 3.01863 3.24795 2.98373 3.37705 3.17588 3.46682 3.24795 3.29926 3.10602 3.37705 3.17588 3.10602 2.96663 3.17588 3.01863 4.30223 4.07703 4.46876 4.21943 4.58536 4.30223 4.75639 4.46876 4.3979 4.09562 4.58536 4.30223 4.09562 3.8047 4.30223 4.07703 2.77748 2.80052 2.80067 2.85951 2.80169 2.80832 2.77748 2.80052 2.8134 2.82267 2.80832 2.80052 2.82267 2.98373 2.80052 2.85951 1.65358 1.64168 1.64681 1.63441 1.67063 1.64794 1.65358 1.64168 1.64272 1.6361 1.64794 1.64168 1.6361 1.62761 1.64168 1.63441 1.82941 1.78406 1.83248 1.79052 1.87553 1.82941 1.87553 1.83248 1.87407 1.8236 1.87553 1.82941 1.8236 1.77337 1.82941 1.78406 1.70255 1.72408 1.67395 1.67063 1.70255 1.67395 1.68086 1.65197 1.74183 1.70255 1.71358 1.68086 1.74183 1.77337 1.70255 1.72408 2.84464 2.8432 2.88733 2.88539 2.8134 2.80832 2.84464 2.8432 2.80169 2.8408 2.80832 2.8432 2.8408 2.88243 2.8432 2.88539 1.63677 1.62718 1.6361 1.62761 1.64457 1.63677 1.64272 1.6361 1.65182 1.64285 1.64457 1.63677 1.64285 1.63233 1.63677 1.62718 2.93195 2.92725 2.97432 2.96482 2.88733 2.88539 2.93195 2.92725 2.88243 2.92118 2.88539 2.92725 2.92118 2.95355 2.92725 2.96482 1.65334 1.64214 1.64285 1.63233 1.66319 1.65334 1.65182 1.64285 1.67821 1.66798 1.66319 1.65334 1.66798 1.65628 1.65334 1.64214 3.53533 3.29926 3.57936 3.37705 3.57936 3.37705 3.64067 3.46682 3.57936 3.64067 3.76838 3.75112 3.53533 3.57936 3.8047 3.76838 2.97693 2.99495 2.95355 2.96482 2.98994 3.01537 2.97693 2.99495 3.03884 3.011 3.01537 2.99495 3.011 2.97432 2.99495 2.96482 1.68762 1.67547 1.66798 1.65628 1.69782 1.68762 1.67821 1.66798 1.72403 1.71395 1.69782 1.68762 1.71395 1.70127 1.68762 1.67547 2.99256 3.0252 2.98994 3.01537 2.98571 3.02485 2.99256 3.0252 1.74855 1.73519 1.71395 1.70127 1.75881 1.74855 1.72403 1.71395 1.79188 1.77772 1.74855 1.73519 2.98571 2.97069 3.02485 3.01543 2.97069 2.94878 3.01543 2.99828 1.843 1.82805 1.79188 1.77772 1.9002 1.88458 1.843 1.82805 2.92112 2.97465 2.94878 2.99828 2.88862 2.94559 2.92112 2.97465 1.96164 1.94547 1.9002 1.88458 2.02573 2.00914 1.96164 1.94547 2.88862 2.85201 2.94559 2.91195 2.85201 2.81181 2.91195 2.87438 2.09121 2.07426 2.02573 2.00914 2.15711 2.13986 2.09121 2.07426 2.81181 2.76843 2.87438 2.83338 2.76843 2.72219 2.83338 2.78931 2.22271 2.20517 2.15711 2.13986 2.28747 2.26964 2.22271 2.20517 2.6733 2.74246 2.72219 2.78931 2.62195 2.69303 2.6733 2.74246 2.35098 2.33286 2.28747 2.26964 2.41297 2.39454 2.35098 2.33286 2.56827 2.64118 2.62195 2.69303 2.51239 2.58705 2.56827 2.64118 2.4732 2.45444 2.41297 2.39454 2.53151 2.51239 2.4732 2.45444 3.94081 3.83161 4.11198 3.96539 4.07703 3.94081 4.21943 4.11198 3.8047 3.76838 4.07703 3.94081 3.76838 3.75112 3.94081 3.83161 3.64067 3.46682 3.7205 3.69798 3.7205 3.69798 3.83161 3.96539 3.64067 3.7205 3.75112 3.83161 1.74183 1.75885 1.77337 1.78406 1.74183 1.71358 1.75885 1.75054 1.75885 1.75054 1.78406 1.79052 2.96663 2.89695 3.01863 2.92816 2.89695 2.80067 2.92816 2.85951 3.01863 2.92816 2.98373 2.85951 2.60703 2.66159 2.57533 2.58705 2.53151 2.57533 2.51239 2.58705 2.55033 2.60703 2.53151 2.57533 1.66118 1.65358 1.65417 1.64681 1.67395 1.66118 1.65197 1.65417 1.67395 1.67063 1.66118 1.65358 62.1203 62.2798 61.4998 61.5749 61.9782 62.1203 61.4186 61.4998 61.8533 61.9782 61.3325 61.4186 61.7407 61.8533 61.2495 61.3325 59.0371 59.0751 58.283 58.3227 58.9632 59.0371 58.1984 58.283 59.7865 59.8497 58.9632 59.0371 59.8497 59.8883 59.0371 59.0751 60.6379 60.6928 59.8497 59.8883 60.5741 60.6379 59.7865 59.8497 61.2495 61.3325 60.5741 60.6379 61.3325 61.4186 60.6379 60.6928 60.8489 60.9232 60.1438 60.2343 60.1438 60.2343 59.2483 59.3661 60.0522 60.1438 59.1312 59.2483 60.7768 60.8489 60.0522 60.1438 60.7416 60.6966 59.8076 59.7256 61.685 61.7041 60.7416 60.6966 61.7041 61.6852 60.6966 60.6239 60.6966 60.6239 59.7256 59.6227 57.9532 58.1511 55.9767 56.7656 59.1312 59.2483 57.9532 58.1511 59.2483 59.3661 58.1511 58.3448 58.1511 58.3448 56.7656 57.2713 62.2798 62.4564 61.5749 61.6398 62.4564 62.6451 61.6398 61.685 62.8282 63.0014 61.7041 61.6852 62.6451 62.8282 61.685 61.7041 61.3357 61.3961 60.8489 60.9232 61.2854 61.3357 60.7768 60.8489 59.8076 59.7256 58.8755 58.7461 59.7256 59.6227 58.7461 58.5881 58.7461 58.5881 57.7679 57.401 58.8755 58.7461 58.0069 57.7679 61.4671 61.5478 61.0014 61.0825 61.3961 61.4671 60.9232 61.0014 61.639 61.7407 61.1663 61.2495 61.5478 61.639 61.0825 61.1663 61.0014 61.0825 60.3265 60.4141 60.3265 60.4141 59.4891 59.5998 60.2343 60.3265 59.3661 59.4891 60.9232 61.0014 60.2343 60.3265 58.8549 58.9632 58.0656 58.1984 58.7113 58.8549 57.8777 58.0656 59.5998 59.7039 58.7113 58.8549 59.7039 59.7865 58.8549 58.9632 61.0825 61.1663 60.4141 60.4995 61.1663 61.2495 60.4995 60.5741 60.4995 60.5741 59.7039 59.7865 60.4141 60.4995 59.5998 59.7039 60.7587 60.7416 59.8638 59.8076 60.7518 60.7587 59.8948 59.8638 61.5749 61.6398 60.7518 60.7587 61.6398 61.685 60.7587 60.7416 58.3448 58.5372 57.2713 57.6216 59.3661 59.4891 58.3448 58.5372 59.4891 59.5998 58.5372 58.7113 58.5372 58.7113 57.6216 57.8777 59.9035 59.8948 59.0777 59.0432 59.0777 59.0432 58.3183 58.2679 59.0751 59.0777 58.3227 58.3183 59.8883 59.9035 59.0751 59.0777 59.8948 59.8638 59.0432 58.9761 59.8638 59.8076 58.9761 58.8755 58.9761 58.8755 58.1672 58.0069 59.0432 58.9761 58.2679 58.1672 60.6928 60.7282 59.8883 59.9035 61.4186 61.4998 60.6928 60.7282 61.4998 61.5749 60.7282 60.7518 60.7282 60.7518 59.9035 59.8948 45.4739 45.186 47.1168 46.9387 45.186 44.8101 46.9387 46.7497 46.9387 46.7497 48.6255 48.574 47.1168 46.9387 48.6744 48.6255 49.1181 49.0539 49.7298 49.7077 49.0539 48.9933 49.7077 49.6941 48.9933 48.9333 49.6941 49.6902 48.9333 48.8774 49.6902 49.6996 47.2809 47.1168 48.7227 48.6744 47.43 47.2809 48.7714 48.7227 45.9136 45.7104 47.43 47.2809 45.7104 45.4739 47.2809 47.1168 48.0516 47.9364 49.0539 48.9933 48.1617 48.0516 49.1181 49.0539 46.91 46.7328 48.1617 48.0516 46.7328 46.573 48.0516 47.9364 48.6744 48.6255 49.9257 50.0402 48.6255 48.574 50.0402 50.1709 47.8189 47.6976 48.9333 48.8774 47.9364 47.8189 48.9933 48.9333 46.573 46.418 47.9364 47.8189 46.418 46.2605 47.8189 47.6976 48.7714 48.7227 49.7687 49.8351 48.7227 48.6744 49.8351 49.9257 48.574 48.5194 50.1709 50.3002 48.5194 48.4497 50.3002 50.3977 44.2471 43.1461 46.5637 46.3404 46.5637 46.3404 48.5194 48.4497 46.7497 46.5637 48.574 48.5194 44.8101 44.2471 46.7497 46.5637 49.253 49.1834 49.7911 49.7579 49.1834 49.1181 49.7579 49.7298 47.1212 46.91 48.2702 48.1617 48.2702 48.1617 49.1834 49.1181 48.3821 48.2702 49.253 49.1834 47.3278 47.1212 48.3821 48.2702 48.8774 48.823 49.6996 49.7247 48.823 48.7714 49.7247 49.7687 47.5678 47.43 48.823 48.7714 47.6976 47.5678 48.8774 48.823 46.2605 46.0944 47.6976 47.5678 46.0944 45.9136 47.5678 47.43 195.835 195.767 194.46 194.393 194.46 194.393 192.607 192.54 194.483 194.46 192.63 192.607 195.857 195.835 194.483 194.46 189.781 189.295 191.741 191.245 189.295 188.74 191.245 190.691 191.245 190.691 192.675 192.123 191.741 191.245 193.178 192.675 186.674 186.129 189.295 188.74 187.131 186.674 189.781 189.295 183.623 183.182 187.131 186.674 183.182 182.675 186.674 186.129 196.768 195.749 196.656 195.637 196.656 195.637 196.503 195.485 197.329 196.656 197.171 196.503 197.442 196.768 197.329 196.656 157.93 157.573 168.112 167.83 157.573 157.137 167.83 167.475 167.83 167.475 175.7 175.434 168.112 167.83 175.897 175.7 187.457 186.976 184.098 183.693 189.979 189.467 187.457 186.976 189.467 188.91 186.976 186.454 186.976 186.454 183.693 183.228 192.426 192.35 194.383 194.311 194.383 194.311 195.818 195.749 194.412 194.383 195.844 195.818 192.46 192.426 194.412 194.383 186.945 186.838 182.726 182.554 186.838 186.675 182.554 182.317 182.554 182.317 176.982 176.676 182.726 182.554 177.225 176.982 193.672 193.206 192.298 191.831 192.298 191.831 190.445 189.979 192.719 192.298 190.867 190.445 194.094 193.672 192.719 192.298 187.508 187.131 190.185 189.781 187.832 187.508 190.547 190.185 184.213 183.944 187.832 187.508 183.944 183.623 187.508 187.131 197.512 197.49 196.846 196.823 197.49 197.422 196.823 196.755 196.823 196.755 195.835 195.767 196.846 196.823 195.857 195.835 197.512 197.9 197.49 197.877 197.9 198.031 197.877 198.009 197.877 198.009 197.81 197.941 197.49 197.877 197.422 197.81 191.831 191.32 189.979 189.467 193.206 192.694 191.831 191.32 192.694 192.137 191.32 190.763 191.32 190.763 189.467 188.91 193.682 193.125 192.694 192.137 194.194 193.682 193.206 192.694 194.86 194.349 194.194 193.682 194.349 193.792 193.682 193.125 190.116 190.014 186.838 186.675 190.172 190.116 186.945 186.838 192.63 192.607 190.172 190.116 192.607 192.54 190.116 190.014 192.175 191.741 193.634 193.178 192.565 192.175 194.043 193.634 190.547 190.185 192.565 192.175 190.185 189.781 192.175 191.741 196.859 195.844 196.836 195.818 196.836 195.818 196.768 195.749 197.51 196.836 197.442 196.768 197.532 196.859 197.51 196.836 198.031 197.913 198.009 197.89 197.913 197.532 197.89 197.51 197.89 197.51 197.823 197.442 198.009 197.89 197.941 197.823 196.125 196.512 195.749 196.136 196.456 196.844 196.125 196.512 196.844 196.975 196.512 196.644 196.512 196.644 196.136 196.268 195.073 194.043 194.661 193.634 194.661 193.634 194.2 193.178 195.347 194.661 194.88 194.2 195.768 195.073 195.347 194.661 192.221 192.057 194.194 194.035 194.194 194.035 195.637 195.485 194.311 194.194 195.749 195.637 192.35 192.221 194.311 194.194 195.248 195.38 194.736 194.868 194.736 194.868 194.179 194.311 194.349 194.736 193.792 194.179 194.86 195.248 194.349 194.736 194.368 193.693 193.812 193.139 194.88 194.2 194.368 193.693 194.2 193.178 193.693 192.675 193.693 192.675 193.139 192.123 195.749 195.327 195.082 194.66 195.327 194.86 194.66 194.194 194.66 194.194 193.672 193.206 195.082 194.66 194.094 193.672 190.445 189.979 187.839 187.457 187.839 187.457 184.384 184.098 188.176 187.839 184.52 184.384 190.867 190.445 188.176 187.839 196.136 196.268 195.714 195.846 195.714 195.846 195.248 195.38 195.327 195.714 194.86 195.248 195.749 196.136 195.327 195.714 197.309 197.151 196.643 196.485 196.643 196.485 195.654 195.496 196.755 196.643 195.767 195.654 197.422 197.309 196.755 196.643 196.145 195.434 195.768 195.073 196.476 195.752 196.145 195.434 195.752 194.68 195.434 194.379 195.434 194.379 195.073 194.043 194.868 194.749 194.311 194.192 195.38 195.261 194.868 194.749 195.261 194.88 194.749 194.368 194.749 194.368 194.192 193.812 197.71 197.329 197.552 197.171 197.828 197.71 197.671 197.552 197.941 197.823 197.828 197.71 197.823 197.442 197.71 197.329 197.697 197.828 197.539 197.671 197.309 197.697 197.151 197.539 197.422 197.81 197.309 197.697 197.81 197.941 197.697 197.828 195.846 195.728 195.38 195.261 196.268 196.149 195.846 195.728 196.149 195.768 195.728 195.347 195.728 195.347 195.261 194.88 196.857 196.476 196.525 196.145 196.525 196.145 196.149 195.768 196.644 196.525 196.268 196.149 196.975 196.857 196.644 196.525 195.458 195.082 194.469 194.094 195.789 195.458 194.8 194.469 196.456 196.125 195.789 195.458 196.125 195.749 195.458 195.082 196.485 196.282 195.496 195.294 197.151 196.948 196.485 196.282 196.948 196.7 196.282 196.033 196.282 196.033 195.294 195.046 197.151 197.539 196.948 197.336 197.539 197.671 197.336 197.468 197.336 197.468 197.087 197.219 196.948 197.336 196.7 197.087 193.095 192.719 191.243 190.867 193.426 193.095 191.574 191.243 194.8 194.469 193.426 193.095 194.469 194.094 193.095 192.719 197.349 196.968 197.101 196.72 197.468 197.349 197.219 197.101 197.671 197.552 197.468 197.349 197.552 197.171 197.349 196.968 196.582 196.456 195.915 195.789 195.915 195.789 194.927 194.8 196.033 195.915 195.046 194.927 196.7 196.582 196.033 195.915 195.654 195.496 194.279 194.121 194.279 194.121 192.423 192.262 194.393 194.279 192.54 192.423 195.767 195.654 194.393 194.279 197.087 197.219 196.97 197.101 196.97 197.101 196.844 196.975 196.582 196.97 196.456 196.844 196.7 197.087 196.582 196.97 197.219 197.101 197.101 196.983 197.101 196.72 196.983 196.6 196.983 196.6 196.857 196.476 197.101 196.983 196.975 196.857 193.849 193.627 195.305 195.089 194.035 193.849 195.485 195.305 192.057 191.857 194.035 193.849 191.857 191.622 193.849 193.627 196.503 195.485 196.311 195.305 196.311 195.305 196.079 195.089 196.968 196.311 196.72 196.079 197.171 196.503 196.968 196.311 192.423 192.262 189.837 189.611 189.837 189.611 186.417 186.038 190.014 189.837 186.675 186.417 192.54 192.423 190.014 189.837 191.14 190.858 193.186 192.893 190.858 190.547 192.893 192.565 192.893 192.565 194.379 194.043 193.186 192.893 194.68 194.379 194.927 194.8 193.555 193.426 193.555 193.426 191.705 191.574 193.675 193.555 191.828 191.705 195.046 194.927 193.675 193.555 193.92 193.675 192.068 191.828 194.121 193.92 192.262 192.068 195.496 195.294 194.121 193.92 195.294 195.046 193.92 193.675 186.394 186.323 189.849 189.803 186.323 186.212 189.803 189.712 189.803 189.712 192.426 192.35 189.849 189.803 192.46 192.426 183.623 178.948 183.182 178.596 178.948 172.848 178.596 172.556 178.596 172.556 178.132 172.18 183.182 178.596 182.675 178.132 196.72 196.079 196.6 195.921 196.079 195.089 195.921 194.889 195.921 194.889 195.752 194.68 196.6 195.921 196.476 195.752 191.385 191.14 193.416 193.186 193.416 193.186 194.889 194.68 193.627 193.416 195.089 194.889 191.622 191.385 193.627 193.416 179.396 179.009 173.809 173.51 179.712 179.396 174.035 173.809 184.098 183.693 179.712 179.396 183.693 183.228 179.396 179.009 189.371 189.136 192.057 191.857 185.797 185.502 189.371 189.136 185.502 185.207 189.136 188.864 189.136 188.864 191.857 191.622 181.85 175.897 181.727 175.7 181.727 175.7 181.554 175.434 186.323 181.727 186.212 181.554 186.394 181.85 186.323 181.727 164.915 164.695 172.848 172.556 154.611 154.45 164.915 164.695 154.45 154.217 164.695 164.396 164.695 164.396 172.556 172.18 166.554 166.342 157.137 156.998 166.702 166.554 157.235 157.137 174.035 173.809 166.702 166.554 173.809 173.51 166.554 166.342 189.712 189.567 192.35 192.221 186.212 186.04 189.712 189.567 186.04 185.797 189.567 189.371 189.567 189.371 192.221 192.057 176.982 176.676 169.745 169.377 169.745 169.377 160.346 159.943 170.056 169.745 160.709 160.346 177.225 176.982 170.056 169.745 179.423 173.201 179.229 173.034 179.229 173.034 178.948 172.848 183.944 179.229 183.623 178.948 184.213 179.423 183.944 179.229 160.346 159.943 148.115 147.685 160.709 160.346 148.5 148.115 157.235 157.137 144.956 144.898 174.055 174.161 166.638 166.741 166.638 166.741 157.068 157.222 166.472 166.638 156.839 157.068 173.945 174.055 166.472 166.638 167.334 166.897 157.793 157.333 174.699 174.25 167.334 166.897 174.25 173.945 166.897 166.472 166.897 166.472 157.333 156.839 167.903 167.334 158.423 157.793 168.45 167.903 158.983 158.423 175.812 175.253 168.45 167.903 175.253 174.699 167.903 167.334 155.472 155.042 166.059 165.753 166.059 165.753 174.162 173.908 166.45 166.059 174.539 174.162 155.865 155.472 166.45 166.059 165.096 165.042 173.201 173.034 154.639 154.669 165.096 165.042 154.669 154.611 165.042 164.915 165.042 164.915 173.034 172.848 157.222 157.251 144.952 144.985 157.251 157.235 144.985 144.956 191.705 191.574 188.586 188.381 188.586 188.381 184.227 183.909 188.779 188.586 184.528 184.227 191.828 191.705 188.779 188.586 180.23 179.876 174.699 174.25 184.528 184.227 180.23 179.876 184.227 183.909 179.876 179.528 179.876 179.528 174.25 173.945 159.943 159.474 147.685 147.233 159.474 158.983 147.233 146.729 156.839 157.068 144.776 144.888 157.068 157.222 144.888 144.952 165.457 165.299 173.663 173.466 165.753 165.457 173.908 173.663 155.042 154.818 165.753 165.457 154.818 154.696 165.457 165.299 158.983 158.423 146.729 146.209 158.423 157.793 146.209 145.687 157.333 156.839 145.225 144.776 157.793 157.333 145.687 145.225 155.042 141.556 154.818 141.258 185.797 180.956 185.502 180.646 180.956 174.539 180.646 174.162 180.646 174.162 180.343 173.908 185.502 180.646 185.207 180.343 180.928 180.23 175.253 174.699 181.531 180.928 175.812 175.253 186.038 185.326 181.531 180.928 185.326 184.528 180.928 180.23 183.909 184.278 179.528 179.799 184.278 184.52 179.799 179.946 179.799 179.946 174.055 174.161 179.528 179.799 173.945 174.055 192.068 191.828 189.219 188.779 189.219 188.779 185.326 184.528 189.611 189.219 186.038 185.326 192.262 192.068 189.611 189.219 154.664 154.639 165.203 165.096 165.203 165.096 173.317 173.201 165.299 165.203 173.466 173.317 154.696 154.664 165.299 165.203 179.609 173.317 179.423 173.201 184.454 179.609 184.213 179.423 184.682 179.801 184.454 179.609 179.801 173.466 179.609 173.317 179.909 179.712 174.157 174.035 179.946 179.909 174.161 174.157 184.52 184.384 179.946 179.909 184.384 184.098 179.909 179.712 188.373 188.114 191.14 190.858 184.682 184.454 188.373 188.114 184.454 184.213 188.114 187.832 188.114 187.832 190.858 190.547 186.417 186.038 181.987 181.531 181.987 181.531 176.286 175.812 182.317 181.987 176.676 176.286 186.675 186.417 182.317 181.987 188.301 188.176 184.278 184.52 188.381 188.301 183.909 184.278 191.574 191.243 188.381 188.301 191.243 190.867 188.301 188.176 181.554 175.434 181.289 175.061 181.289 175.061 180.956 174.539 186.04 181.289 185.797 180.956 186.212 181.554 186.04 181.289 167.013 166.45 175.061 174.539 167.475 167.013 175.434 175.061 157.137 156.57 167.475 167.013 156.57 155.865 167.013 166.45 169.377 168.948 159.943 159.474 176.676 176.286 169.377 168.948 176.286 175.812 168.948 168.45 168.948 168.45 159.474 158.983 174.161 174.157 166.741 166.768 174.157 174.035 166.768 166.702 166.768 166.702 157.251 157.235 166.741 166.768 157.222 157.251 185.207 184.957 188.864 188.633 184.957 184.682 188.633 188.373 188.633 188.373 191.385 191.14 188.864 188.633 191.622 191.385 184.957 180.079 184.682 179.801 185.207 180.343 184.957 180.079 180.343 173.908 180.079 173.663 180.079 173.663 179.801 173.466 47.6776 47.0459 51.9225 53.0731 48.4497 47.6776 50.3977 51.9225 43.1461 21.0419 37.9819 21.7476 21.0419 4.21943 21.7476 4.11198 21.7476 4.11198 22.3846 3.96539 37.9819 21.7476 37.04 22.3846 46.3404 44.4763 48.4497 47.6776 43.1461 37.9819 46.3404 44.4763 37.9819 37.04 44.4763 43.326 44.4763 43.326 47.6776 47.0459 59.6227 57.9182 58.5881 56.1895 57.9182 56.3627 56.1895 54.1282 56.1895 54.1282 53.0078 49.1426 58.5881 56.1895 57.401 53.0078 164.396 160.031 172.18 167.48 154.217 150.267 164.396 160.031 182.675 178.132 177.475 173.157 178.132 172.18 173.157 167.48 186.129 180.745 188.74 183.203 182.675 177.475 186.129 180.745 190.691 185.028 192.123 186.354 188.74 183.203 