# vtk DataFile Version 3.0
#This file was generated by the deal.II library on 2020/5/26 at 18:52:18
ASCII
DATASET UNSTRUCTURED_GRID

POINTS 4536 double
0.45119 0.4 0
0.902381 0.4 0
0.435714 0.8 0
0.871429 0.8 0
0 0.4 0
0.45119 0.4 0
0 0.8 0
0.435714 0.8 0
0 0 0
0.466667 0 0
0 0.4 0
0.45119 0.4 0
0.466667 0 0
0.933333 0 0
0.45119 0.4 0
0.902381 0.4 0
0.483333 23.6 0
0.966667 23.6 0
0.466667 24 0
0.933333 24 0
0 23.6 0
0.483333 23.6 0
0 24 0
0.466667 24 0
0 23.2 0
0.5 23.2 0
0 23.6 0
0.483333 23.6 0
0.5 23.2 0
1 23.2 0
0.483333 23.6 0
0.966667 23.6 0
1.35357 0.4 0
1.80476 0.4 0
1.30714 0.8 0
1.74286 0.8 0
0.902381 0.4 0
1.35357 0.4 0
0.871429 0.8 0
1.30714 0.8 0
0.933333 0 0
1.4 0 0
0.902381 0.4 0
1.35357 0.4 0
1.4 0 0
1.86667 0 0
1.35357 0.4 0
1.80476 0.4 0
1.45 23.6 0
1.93333 23.6 0
1.4 24 0
1.86667 24 0
0.966667 23.6 0
1.45 23.6 0
0.933333 24 0
1.4 24 0
1 23.2 0
1.5 23.2 0
0.966667 23.6 0
1.45 23.6 0
1.5 23.2 0
2 23.2 0
1.45 23.6 0
1.93333 23.6 0
2.25595 0.4 0
2.70714 0.4 0
2.17857 0.8 0
2.61429 0.8 0
1.80476 0.4 0
2.25595 0.4 0
1.74286 0.8 0
2.17857 0.8 0
1.86667 0 0
2.33333 0 0
1.80476 0.4 0
2.25595 0.4 0
2.33333 0 0
2.8 0 0
2.25595 0.4 0
2.70714 0.4 0
2.41667 23.6 0
2.9 23.6 0
2.33333 24 0
2.8 24 0
1.93333 23.6 0
2.41667 23.6 0
1.86667 24 0
2.33333 24 0
2 23.2 0
2.5 23.2 0
1.93333 23.6 0
2.41667 23.6 0
2.5 23.2 0
3 23.2 0
2.41667 23.6 0
2.9 23.6 0
3.15833 0.4 0
3.60952 0.4 0
3.05 0.8 0
3.48571 0.8 0
2.70714 0.4 0
3.15833 0.4 0
2.61429 0.8 0
3.05 0.8 0
2.8 0 0
3.26667 0 0
2.70714 0.4 0
3.15833 0.4 0
3.26667 0 0
3.73333 0 0
3.15833 0.4 0
3.60952 0.4 0
3.38333 23.6 0
3.86667 23.6 0
3.26667 24 0
3.73333 24 0
2.9 23.6 0
3.38333 23.6 0
2.8 24 0
3.26667 24 0
3 23.2 0
3.5 23.2 0
2.9 23.6 0
3.38333 23.6 0
3.5 23.2 0
4 23.2 0
3.38333 23.6 0
3.86667 23.6 0
4.06071 0.400002 0
4.51187 0.400017 0
3.92143 0.8 0
4.35714 0.8 0
3.60952 0.4 0
4.06071 0.400002 0
3.48571 0.8 0
3.92143 0.8 0
3.73333 0 0
4.2 0 0
3.60952 0.4 0
4.06071 0.400002 0
4.2 0 0
4.66667 0 0
4.06071 0.400002 0
4.51187 0.400017 0
4.35 23.6 0
4.83333 23.6 0
4.2 24 0
4.66667 24 0
3.86667 23.6 0
4.35 23.6 0
3.73333 24 0
4.2 24 0
4 23.2 0
4.5 23.2 0
3.86667 23.6 0
4.35 23.6 0
4.5 23.2 0
5 23.2 0
4.35 23.6 0
4.83333 23.6 0
4.96274 0.40018 0
5.412 0.401188 0
4.79286 0.8 0
5.22857 0.8 0
4.51187 0.400017 0
4.96274 0.40018 0
4.35714 0.8 0
4.79286 0.8 0
4.66667 0 0
5.13333 0 0
4.51187 0.400017 0
4.96274 0.40018 0
5.13333 0 0
5.6 0 0
4.96274 0.40018 0
5.412 0.401188 0
5.31667 23.6 0
5.8 23.6 0
5.13333 24 0
5.6 24 0
4.83333 23.6 0
5.31667 23.6 0
4.66667 24 0
5.13333 24 0
5 23.2 0
5.5 23.2 0
4.83333 23.6 0
5.31667 23.6 0
5.5 23.2 0
6 23.2 0
5.31667 23.6 0
5.8 23.6 0
7.7656 0.408656 0
8.08564 0.489853 0
7.625 0.8 0
8 0.8 0
7.37297 0.372717 0
7.7656 0.408656 0
7.25 0.8 0
7.625 0.8 0
7.46667 0 0
7.93333 0 0
7.37297 0.372717 0
7.7656 0.408656 0
7.93333 0 0
8.4 0 0
7.7656 0.408656 0
8.08564 0.489853 0
5.851 0.407784 0
6.22598 0.450874 0
5.66429 0.8 0
6.1 0.8 0
5.412 0.401188 0
5.851 0.407784 0
5.22857 0.8 0
5.66429 0.8 0
5.6 0 0
6.06667 0 0
5.412 0.401188 0
5.851 0.407784 0
6.06667 0 0
6.53333 0 0
5.851 0.407784 0
6.22598 0.450874 0
8.4 1.5 0
8.20238 1.40048 0
8.4 1 0
8.21539 0.946782 0
8.4 2 0
8.20022 1.8875 0
8.4 1.5 0
8.20238 1.40048 0
8 1.77391 0
8 1.28696 0
8.20022 1.8875 0
8.20238 1.40048 0
8 1.28696 0
8 0.8 0
8.20238 1.40048 0
8.21539 0.946782 0
8.21496 23.0543 0
8.2025 22.599 0
8.4 23 0
8.4 22.5 0
8 23.2 0
8 22.713 0
8.21496 23.0543 0
8.2025 22.599 0
8 22.2261 0
8.20035 22.1121 0
8 22.713 0
8.2025 22.599 0
8.20035 22.1121 0
8.4 22 0
8.2025 22.599 0
8.4 22.5 0
6.28333 23.6 0
6.76667 23.6 0
6.06667 24 0
6.53333 24 0
5.8 23.6 0
6.28333 23.6 0
5.6 24 0
6.06667 24 0
6 23.2 0
6.5 23.2 0
5.8 23.6 0
6.28333 23.6 0
6.5 23.2 0
7 23.2 0
6.28333 23.6 0
6.76667 23.6 0
7.69489 23.5856 0
7.5 23.2 0
8.06391 23.5091 0
8 23.2 0
7.69489 23.5856 0
8.06391 23.5091 0
7.93333 24 0
8.4 24 0
7.23333 23.6 0
7.69489 23.5856 0
7.46667 24 0
7.93333 24 0
7.23333 23.6 0
7 23.2 0
7.69489 23.5856 0
7.5 23.2 0
8 2.26087 0
8.20003 2.3805 0
8 2.74783 0
8.2 2.87391 0
8 1.77391 0
8.20022 1.8875 0
8 2.26087 0
8.20003 2.3805 0
8.4 2 0
8.4 2.5 0
8.20022 1.8875 0
8.20003 2.3805 0
8.4 2.5 0
8.4 3 0
8.20003 2.3805 0
8.2 2.87391 0
8.20005 21.6194 0
8.4 21.5 0
8.20035 22.1121 0
8.4 22 0
8 21.7391 0
8.20005 21.6194 0
8 22.2261 0
8.20035 22.1121 0
8 21.2522 0
8.2 21.1261 0
8 21.7391 0
8.20005 21.6194 0
8.2 21.1261 0
8.4 21 0
8.20005 21.6194 0
8.4 21.5 0
8 3.23478 0
8.2 3.36739 0
8 3.72174 0
8.2 3.86087 0
8 2.74783 0
8.2 2.87391 0
8 3.23478 0
8.2 3.36739 0
8.4 3 0
8.4 3.5 0
8.2 2.87391 0
8.2 3.36739 0
8.4 3.5 0
8.4 4 0
8.2 3.36739 0
8.2 3.86087 0
8.2 20.6326 0
8.4 20.5 0
8.2 21.1261 0
8.4 21 0
8 20.7652 0
8.2 20.6326 0
8 21.2522 0
8.2 21.1261 0
8 20.2783 0
8.2 20.1391 0
8 20.7652 0
8.2 20.6326 0
8.2 20.1391 0
8.4 20 0
8.2 20.6326 0
8.4 20.5 0
7 0 0
7.46667 0 0
7.00198 0.331094 0
7.37297 0.372717 0
7.00198 0.331094 0
7.37297 0.372717 0
6.94022 0.576588 0
7.25 0.8 0
7.00198 0.331094 0
6.94022 0.576588 0
6.69426 0.367442 0
6.75692 0.535711 0
7 0 0
7.00198 0.331094 0
6.53333 0 0
6.69426 0.367442 0
8.4 4.5 0
8.2 4.35435 0
8.4 4 0
8.2 3.86087 0
8.4 5 0
8.2 4.84783 0
8.4 4.5 0
8.2 4.35435 0
8 4.69565 0
8 4.2087 0
8.2 4.84783 0
8.2 4.35435 0
8 4.2087 0
8 3.72174 0
8.2 4.35435 0
8.2 3.86087 0
8.2 19.6457 0
8.4 19.5 0
8.2 20.1391 0
8.4 20 0
8 19.7913 0
8.2 19.6457 0
8 20.2783 0
8.2 20.1391 0
8 19.3043 0
8.2 19.1522 0
8 19.7913 0
8.2 19.6457 0
8.2 19.1522 0
8.4 19 0
8.2 19.6457 0
8.4 19.5 0
8.4 5.5 0
8.2 5.3413 0
8.4 5 0
8.2 4.84783 0
8.4 6 0
8.2 5.83478 0
8.4 5.5 0
8.2 5.3413 0
8 5.66957 0
8 5.18261 0
8.2 5.83478 0
8.2 5.3413 0
8 5.18261 0
8 4.69565 0
8.2 5.3413 0
8.2 4.84783 0
8.2 18.6587 0
8.4 18.5 0
8.2 19.1522 0
8.4 19 0
8 18.8174 0
8.2 18.6587 0
8 19.3043 0
8.2 19.1522 0
8 18.3304 0
8.2 18.1652 0
8 18.8174 0
8.2 18.6587 0
8.2 18.1652 0
8.4 18 0
8.2 18.6587 0
8.4 18.5 0
8 6.15652 0
8.2 6.32826 0
8 6.64348 0
8.2 6.82174 0
8 5.66957 0
8.2 5.83478 0
8 6.15652 0
8.2 6.32826 0
8.4 6 0
8.4 6.5 0
8.2 5.83478 0
8.2 6.32826 0
8.4 6.5 0
8.4 7 0
8.2 6.32826 0
8.2 6.82174 0
8.2 17.6717 0
8.4 17.5 0
8.2 18.1652 0
8.4 18 0
8 17.8435 0
8.2 17.6717 0
8 18.3304 0
8.2 18.1652 0
8 17.3565 0
8.2 17.1783 0
8 17.8435 0
8.2 17.6717 0
8.2 17.1783 0
8.4 17 0
8.2 17.6717 0
8.4 17.5 0
8.4 7.5 0
8.2 7.31522 0
8.4 7 0
8.2 6.82174 0
8.4 8 0
8.2 7.8087 0
8.4 7.5 0
8.2 7.31522 0
8 7.61739 0
8 7.13043 0
8.2 7.8087 0
8.2 7.31522 0
8 7.13043 0
8 6.64348 0
8.2 7.31522 0
8.2 6.82174 0
8.2 16.6848 0
8.4 16.5 0
8.2 17.1783 0
8.4 17 0
8 16.8696 0
8.2 16.6848 0
8 17.3565 0
8.2 17.1783 0
8 16.3826 0
8.2 16.1913 0
8 16.8696 0
8.2 16.6848 0
8.2 16.1913 0
8.4 16 0
8.2 16.6848 0
8.4 16.5 0
8 8.10435 0
8.2 8.30217 0
8 8.5913 0
8.2 8.79565 0
8 7.61739 0
8.2 7.8087 0
8 8.10435 0
8.2 8.30217 0
8.4 8 0
8.4 8.5 0
8.2 7.8087 0
8.2 8.30217 0
8.4 8.5 0
8.4 9 0
8.2 8.30217 0
8.2 8.79565 0
8.2 15.6978 0
8.4 15.5 0
8.2 16.1913 0
8.4 16 0
8 15.8957 0
8.2 15.6978 0
8 16.3826 0
8.2 16.1913 0
8 15.4087 0
8.2 15.2043 0
8 15.8957 0
8.2 15.6978 0
8.2 15.2043 0
8.4 15 0
8.2 15.6978 0
8.4 15.5 0
8 9.07826 0
8.2 9.28913 0
8 9.56522 0
8.2 9.78261 0
8 8.5913 0
8.2 8.79565 0
8 9.07826 0
8.2 9.28913 0
8.4 9 0
8.4 9.5 0
8.2 8.79565 0
8.2 9.28913 0
8.4 9.5 0
8.4 10 0
8.2 9.28913 0
8.2 9.78261 0
8.2 14.7109 0
8.4 14.5 0
8.2 15.2043 0
8.4 15 0
8 14.9217 0
8.2 14.7109 0
8 15.4087 0
8.2 15.2043 0
8 14.4348 0
8.2 14.2174 0
8 14.9217 0
8.2 14.7109 0
8.2 14.2174 0
8.4 14 0
8.2 14.7109 0
8.4 14.5 0
8.4 10.5 0
8.2 10.2761 0
8.4 10 0
8.2 9.78261 0
8.4 11 0
8.2 10.7696 0
8.4 10.5 0
8.2 10.2761 0
8 10.5391 0
8 10.0522 0
8.2 10.7696 0
8.2 10.2761 0
8 10.0522 0
8 9.56522 0
8.2 10.2761 0
8.2 9.78261 0
8.2 13.7239 0
8.4 13.5 0
8.2 14.2174 0
8.4 14 0
8 13.9478 0
8.2 13.7239 0
8 14.4348 0
8.2 14.2174 0
8 13.4609 0
8.2 13.2304 0
8 13.9478 0
8.2 13.7239 0
8.2 13.2304 0
8.4 13 0
8.2 13.7239 0
8.4 13.5 0
8.4 11.5 0
8.2 11.263 0
8.4 11 0
8.2 10.7696 0
8.4 12 0
8.2 11.7565 0
8.4 11.5 0
8.2 11.263 0
8 11.513 0
8 11.0261 0
8.2 11.7565 0
8.2 11.263 0
8 11.0261 0
8 10.5391 0
8.2 11.263 0
8.2 10.7696 0
8.2 12.737 0
8.4 12.5 0
8.2 13.2304 0
8.4 13 0
8 12.9739 0
8.2 12.737 0
8 13.4609 0
8.2 13.2304 0
8 12.487 0
8.2 12.2435 0
8 12.9739 0
8.2 12.737 0
8.2 12.2435 0
8.4 12 0
8.2 12.737 0
8.4 12.5 0
6.47056 0.554541 0
6.65423 0.648139 0
6.3 0.8 0
6.5 0.8 0
6.22598 0.450874 0
6.47056 0.554541 0
6.1 0.8 0
6.3 0.8 0
6.53333 0 0
6.69426 0.367442 0
6.22598 0.450874 0
6.47056 0.554541 0
6.69426 0.367442 0
6.75692 0.535711 0
6.47056 0.554541 0
6.65423 0.648139 0
6.94022 0.576588 0
7.25 0.8 0
6.82768 0.687981 0
6.875 0.8 0
6.82768 0.687981 0
6.875 0.8 0
6.65423 0.648139 0
6.5 0.8 0
6.94022 0.576588 0
6.82768 0.687981 0
6.75692 0.535711 0
6.65423 0.648139 0
7.23333 23.6 0
7 23.7333 0
7 23.2 0
6.76667 23.6 0
7.23333 23.6 0
7.46667 24 0
7 23.7333 0
7 24 0
7 23.7333 0
7 24 0
6.76667 23.6 0
6.53333 24 0
8.4 0 0
8.4 0.5 0
8.08564 0.489853 0
8.24539 0.628305 0
8.4 0.5 0
8.4 1 0
8.24539 0.628305 0
8.21539 0.946782 0
8.08564 0.489853 0
8.24539 0.628305 0
8 0.8 0
8.21539 0.946782 0
8 12 0
8 11.513 0
8.13333 12 0
8.2 11.7565 0
8.2 12.2435 0
8.13333 12 0
8.4 12 0
8.2 11.7565 0
8 12.487 0
8 12 0
8.2 12.2435 0
8.13333 12 0
8.2409 23.3709 0
8.21496 23.0543 0
8.4 23.5 0
8.4 23 0
8.06391 23.5091 0
8.2409 23.3709 0
8.4 24 0
8.4 23.5 0
8.06391 23.5091 0
8 23.2 0
8.2409 23.3709 0
8.21496 23.0543 0
3.48654 19.2104 0
3.48571 18.8 0
3.92285 19.2089 0
3.92143 18.8 0
3.92285 19.2089 0
3.92143 18.8 0
4.35873 19.2071 0
4.35714 18.8 0
3.92285 19.2089 0
4.35873 19.2071 0
3.92402 19.6155 0
4.36024 19.6131 0
3.48654 19.2104 0
3.92285 19.2089 0
3.48709 19.6173 0
3.92402 19.6155 0
2.61306 19.209 0
2.61429 18.8 0
3.04979 19.2095 0
3.05 18.8 0
3.04979 19.2095 0
3.05 18.8 0
3.48654 19.2104 0
3.48571 18.8 0
3.04979 19.2095 0
3.48654 19.2104 0
3.04963 19.6194 0
3.48709 19.6173 0
2.61306 19.209 0
3.04979 19.2095 0
2.61199 19.618 0
3.04963 19.6194 0
3.04985 20.8074 0
3.4864 20.8076 0
3.05 21.2 0
3.48571 21.2 0
2.6132 20.8075 0
3.04985 20.8074 0
2.61429 21.2 0
3.05 21.2 0
[...]
POINT_DATA 4536
SCALARS solution double 1
LOOKUP_TABLE default
8.53861 8.24264 8.56783 8.28299 8.7105 8.53861 8.84334 8.56783 8.77414 8.59351 8.7105 8.53861 8.59351 8.24267 8.53861 8.24264 2.26841 2.25511 2.26549 2.24774 2.27288 2.26841 2.27598 2.26549 2.27511 2.27797 2.27288 2.26841 2.27797 2.26863 2.26841 2.25511 7.88438 7.49607 7.94922 7.58386 8.24264 7.88438 8.28299 7.94922 8.24267 7.83727 8.24264 7.88438 7.83727 7.41256 7.88438 7.49607 2.23374 2.20581 2.22364 2.19441 2.25511 2.23374 2.24774 2.22364 2.26863 2.24885 2.25511 2.23374 2.24885 2.22104 2.23374 2.20581 7.09672 6.69819 7.20407 6.8218 7.49607 7.09672 7.58386 7.20407 7.41256 6.9856 7.49607 7.09672 6.9856 6.56619 7.09672 6.69819 2.17286 2.13617 2.16122 2.12504 2.20581 2.17286 2.19441 2.16122 2.22104 2.18734 2.20581 2.17286 2.18734 2.14939 2.17286 2.13617 6.30788 5.93027 6.44485 6.07812 6.69819 6.30788 6.8218 6.44485 6.56619 6.16007 6.69819 6.30788 6.16007 5.77054 6.30788 5.93027 2.09668 2.05507 2.08657 2.04636 2.13617 2.09668 2.12504 2.08657 2.14939 2.1083 2.13617 2.09668 2.1083 2.06485 2.09668 2.05507 5.56795 5.22231 5.72455 5.38583 5.93027 5.56795 6.07812 5.72455 5.77054 5.39927 5.93027 5.56795 5.39927 5.04692 5.56795 5.22231 2.01181 1.96725 2.00481 1.96225 2.05507 2.01181 2.04636 2.00481 2.06485 2.01948 2.05507 2.01181 2.01948 1.97246 2.01181 1.96725 4.89419 4.58498 5.06286 4.75629 5.22231 4.89419 5.38583 5.06286 5.04692 4.71333 5.22231 4.89419 4.71333 4.39721 4.89419 4.58498 1.92173 1.87562 1.91904 1.87561 1.96725 1.92173 1.96225 1.91904 1.97246 1.92394 1.96725 1.92173 1.92394 1.87417 1.92173 1.87562 3.17446 3.01715 3.2466 2.98223 3.37573 3.17446 3.46562 3.2466 3.2978 3.10451 3.37573 3.17446 3.10451 2.96516 3.17446 3.01715 4.30166 4.07633 4.46846 4.21901 4.58498 4.30166 4.75629 4.46846 4.39721 4.0947 4.58498 4.30166 4.0947 3.80355 4.30166 4.07633 2.77579 2.79886 2.79908 2.85794 2.79989 2.80655 2.77579 2.79886 2.81168 2.82105 2.80655 2.79886 2.82105 2.98223 2.79886 2.85794 1.65359 1.6417 1.64682 1.63443 1.67064 1.64795 1.65359 1.6417 1.64275 1.63612 1.64795 1.6417 1.63612 1.62764 1.6417 1.63443 1.82948 1.7841 1.83254 1.79057 1.87562 1.82948 1.87561 1.83254 1.87417 1.82368 1.87562 1.82948 1.82368 1.77342 1.82948 1.7841 1.70257 1.72411 1.67396 1.67064 1.70257 1.67396 1.68086 1.65197 1.74186 1.70257 1.71359 1.68086 1.74186 1.77342 1.70257 1.72411 2.8428 2.84133 2.88538 2.88341 2.81168 2.80655 2.8428 2.84133 2.79989 2.83889 2.80655 2.84133 2.83889 2.88044 2.84133 2.88341 1.6368 1.62721 1.63612 1.62764 1.64461 1.6368 1.64275 1.63612 1.65185 1.64287 1.64461 1.6368 1.64287 1.63235 1.6368 1.62721 2.92989 2.9252 2.9722 2.96275 2.88538 2.88341 2.92989 2.9252 2.88044 2.91915 2.88341 2.9252 2.91915 2.95156 2.9252 2.96275 1.65332 1.64212 1.64287 1.63235 1.66318 1.65332 1.65185 1.64287 1.67811 1.66786 1.66318 1.65332 1.66786 1.65617 1.65332 1.64212 3.53399 3.2978 3.57817 3.37573 3.57817 3.37573 3.6396 3.46562 3.57817 3.6396 3.76736 3.75015 3.53399 3.57817 3.80355 3.76736 2.97503 2.99294 2.95156 2.96275 2.98816 3.01347 2.97503 2.99294 3.03683 3.00889 3.01347 2.99294 3.00889 2.9722 2.99294 2.96275 1.68733 1.6752 1.66786 1.65617 1.69755 1.68733 1.67811 1.66786 1.72349 1.71341 1.69755 1.68733 1.71341 1.70076 1.68733 1.6752 2.9909 3.02343 2.98816 3.01347 2.98414 3.02319 2.9909 3.02343 3.06064 3.05416 3.02319 3.02343 3.05416 3.03683 3.02343 3.01347 1.7477 1.73437 1.71341 1.70076 1.75793 1.7477 1.72349 1.71341 1.80162 1.79072 1.75793 1.7477 1.79072 1.7766 1.7477 1.73437 3.05717 3.01386 3.04508 2.99677 3.06064 3.02319 3.05717 3.01386 2.98414 2.96919 3.02319 3.01386 2.96919 2.94733 3.01386 2.99677 1.84159 1.82668 1.79072 1.7766 1.85356 1.84159 1.80162 1.79072 1.91172 1.8986 1.85356 1.84159 1.8986 1.88301 1.84159 1.82668 2.91969 2.97318 2.94733 2.99677 2.8872 2.94415 2.91969 2.97318 3.0003 3.02572 2.94415 2.97318 3.02572 3.04508 2.97318 2.99677 1.95991 1.94378 1.8986 1.88301 1.97406 1.95991 1.91172 1.8986 2.03893 2.02392 1.97406 1.95991 2.02392 2.00735 1.95991 1.94378 2.9698 2.91051 2.93498 2.87293 3.0003 2.94415 2.9698 2.91051 2.8872 2.85058 2.94415 2.91051 2.85058 2.81036 2.91051 2.87293 2.08935 2.07244 2.02392 2.00735 2.10505 2.08935 2.03893 2.02392 2.1715 2.15524 2.10505 2.08935 2.15524 2.13801 2.08935 2.07244 2.89642 2.83191 2.85459 2.78781 2.93498 2.87293 2.89642 2.83191 2.81036 2.76696 2.87293 2.83191 2.76696 2.72068 2.83191 2.78781 2.22084 2.20333 2.15524 2.13801 2.23759 2.22084 2.1715 2.15524 2.3028 2.28561 2.23759 2.22084 2.28561 2.26782 2.22084 2.20333 2.67176 2.74092 2.72068 2.78781 2.62037 2.69145 2.67176 2.74092 2.76231 2.8098 2.69145 2.74092 2.8098 2.85459 2.74092 2.78781 2.34916 2.33107 2.28561 2.26782 2.36675 2.34916 2.3028 2.28561 2.42916 2.41118 2.36675 2.34916 2.41118 2.39278 2.34916 2.33107 2.56665 2.63957 2.62037 2.69145 2.51072 2.58539 2.56665 2.63957 2.65995 2.71231 2.58539 2.63957 2.71231 2.76231 2.63957 2.69145 2.47145 2.45272 2.41118 2.39278 2.48983 2.47145 2.42916 2.41118 2.5486 2.52981 2.48983 2.47145 2.52981 2.51072 2.47145 2.45272 3.94005 3.83076 4.11157 3.96479 4.07633 3.94005 4.21901 4.11157 3.80355 3.76736 4.07633 3.94005 3.76736 3.75015 3.94005 3.83076 3.6396 3.46562 3.71953 3.69701 3.71953 3.69701 3.83076 3.96479 3.6396 3.71953 3.75015 3.83076 1.74186 1.75889 1.77342 1.7841 1.74186 1.71359 1.75889 1.75056 1.75889 1.75056 1.7841 1.79057 2.96516 2.89545 3.01715 2.92665 2.89545 2.79908 2.92665 2.85794 3.01715 2.92665 2.98223 2.85794 2.60534 2.65995 2.57365 2.58539 2.52981 2.57365 2.51072 2.58539 2.5486 2.60534 2.52981 2.57365 1.66119 1.65359 1.65418 1.64682 1.67396 1.66119 1.65197 1.65418 1.67396 1.67064 1.66119 1.65359 62.0554 62.3128 62.1946 62.4964 62.1946 62.4964 62.3498 62.7217 62.1946 62.3498 61.5635 61.6349 62.0554 62.1946 61.4852 61.5635 61.8217 62.0338 61.9328 62.1622 61.9328 62.1622 62.0554 62.3128 61.9328 62.0554 61.4013 61.4852 61.8217 61.9328 61.3201 61.4013 59.0931 59.1307 58.3376 58.3772 59.0194 59.0931 58.253 58.3376 59.8456 59.9082 59.0194 59.0931 59.9082 59.946 59.0931 59.1307 60.7003 60.7537 59.9082 59.946 60.6377 60.7003 59.8456 59.9082 61.3201 61.4013 60.6377 60.7003 61.4013 61.4852 60.7003 60.7537 60.9217 60.9964 60.2087 60.2995 60.2087 60.2995 59.3073 59.4255 60.1165 60.2087 59.1896 59.3073 60.8489 60.9217 60.1165 60.2087 60.7944 60.7474 59.8612 59.7784 61.7355 61.7492 60.7944 60.7474 61.7492 61.7277 60.7474 60.6733 60.7474 60.6733 59.7784 59.6748 58.0057 58.2054 56.0118 56.8173 59.1896 59.3073 58.0057 58.2054 59.3073 59.4255 58.2054 58.3998 58.2054 58.3998 56.8173 57.3229 62.3498 62.5195 61.6349 61.6954 62.3498 62.7217 62.5195 63.0118 62.5195 63.0118 62.6966 63.4123 62.5195 62.6966 61.6954 61.7355 62.8596 64.0424 63.0318 65.3299 62.8596 63.0318 61.7492 61.7277 62.6966 62.8596 61.7355 61.7492 62.6966 63.4123 62.8596 64.0424 61.4199 61.4806 60.9217 60.9964 61.3693 61.4199 60.8489 60.9217 61.3693 61.6316 61.4199 61.6468 61.4199 61.6468 61.4806 61.6909 59.8612 59.7784 58.9289 58.799 59.7784 59.6748 58.799 58.6406 58.799 58.6406 57.82 57.4526 58.9289 58.799 58.0597 57.82 61.5514 61.6312 61.0745 61.1552 61.4806 61.5514 60.9964 61.0745 61.4806 61.6909 61.5514 61.7542 61.5514 61.7542 61.6312 61.832 61.6312 61.832 61.7216 61.9258 61.7216 61.9258 61.8217 62.0338 61.7216 61.8217 61.2382 61.3201 61.6312 61.7216 61.1552 61.2382 61.0745 61.1552 60.3917 60.4791 60.3917 60.4791 59.5487 59.6595 60.2995 60.3917 59.4255 59.5487 60.9964 61.0745 60.2995 60.3917 58.9111 59.0194 58.12 58.253 58.7673 58.9111 57.9316 58.12 59.6595 59.7634 58.7673 58.9111 59.7634 59.8456 58.9111 59.0194 61.1552 61.2382 60.4791 60.564 61.2382 61.3201 60.564 60.6377 60.564 60.6377 59.7634 59.8456 60.4791 60.564 59.6595 59.7634 60.8137 60.7944 59.9185 59.8612 60.8089 60.8137 59.9505 59.9185 61.6349 61.6954 60.8089 60.8137 61.6954 61.7355 60.8137 60.7944 58.3998 58.5928 57.3229 57.6745 59.4255 59.5487 58.3998 58.5928 59.5487 59.6595 58.5928 58.7673 58.5928 58.7673 57.6745 57.9316 59.9602 59.9505 59.1328 59.0978 59.1328 59.0978 58.3724 58.3217 59.1307 59.1328 58.3772 58.3724 59.946 59.9602 59.1307 59.1328 59.9505 59.9185 59.0978 59.03 59.9185 59.8612 59.03 58.9289 59.03 58.9289 58.2204 58.0597 59.0978 59.03 58.3217 58.2204 60.7537 60.7874 59.946 59.9602 61.4852 61.5635 60.7537 60.7874 61.5635 61.6349 60.7874 60.8089 60.7874 60.8089 59.9602 59.9505 45.6526 45.362 47.3025 47.1216 45.362 44.9833 47.1216 46.9301 47.1216 46.9301 48.8131 48.7577 47.3025 47.1216 48.8662 48.8131 49.3356 49.2691 49.9624 49.9375 49.2691 49.2061 49.9375 49.9208 49.9375 49.9208 50.2064 50.209 49.9624 49.9375 50.2135 50.2064 49.2061 49.1433 49.9208 49.9136 49.1433 49.0842 49.9136 49.9193 49.9136 49.9193 50.2247 50.2593 49.9208 49.9136 50.209 50.2247 47.4694 47.3025 48.9186 48.8662 47.6214 47.4694 48.9712 48.9186 46.0976 45.8918 47.6214 47.4694 45.8918 45.6526 47.4694 47.3025 48.2556 48.1383 49.2691 49.2061 48.3675 48.2556 49.3356 49.2691 47.1078 46.9287 48.3675 48.2556 46.9287 46.7666 48.2556 48.1383 48.8662 48.8131 50.1266 50.232 48.8131 48.7577 50.232 50.3491 50.232 50.3491 51.0448 51.4546 50.1266 50.232 50.7646 51.0448 48.0184 47.8946 49.1433 49.0842 48.1383 48.0184 49.2061 49.1433 46.7666 46.6094 48.1383 48.0184 46.6094 46.4495 48.0184 47.8946 48.9712 48.9186 49.9807 50.0422 48.9186 48.8662 50.0422 50.1266 50.0422 50.1266 50.5648 50.7646 49.9807 50.0422 50.4224 50.5648 50.3491 50.4597 51.4546 52.1102 48.7577 48.6991 50.3491 50.4597 48.6991 48.6308 50.4597 50.5877 50.4597 50.5877 52.1102 53.3588 44.4172 43.3094 46.7421 46.5174 46.7421 46.5174 48.6991 48.6308 46.9301 46.7421 48.7577 48.6991 44.9833 44.4172 46.9301 46.7421 50.0288 49.9929 50.2481 50.2271 49.4737 49.4027 50.0288 49.9929 49.4027 49.3356 49.9929 49.9624 49.9929 49.9624 50.2271 50.2135 47.3205 47.1078 48.4775 48.3675 48.4775 48.3675 49.4027 49.3356 48.5892 48.4775 49.4737 49.4027 47.5199 47.3205 48.5892 48.4775 49.0842 49.0265 49.9193 49.941 49.0265 48.9712 49.941 49.9807 49.941 49.9807 50.3256 50.4224 49.9193 49.941 50.2593 50.3256 47.762 47.6214 49.0265 48.9712 47.8946 47.762 49.0842 49.0265 46.4495 46.2809 47.8946 47.762 46.2809 46.0976 47.762 47.6214 106.666 106.514 62.4964 62.7217 106.832 106.666 62.3128 62.4964 128.639 128.494 106.832 106.666 128.494 128.448 106.666 106.514 195.785 195.717 194.398 194.33 194.398 194.33 192.528 192.46 194.42 194.398 192.55 192.528 195.808 195.785 194.42 194.398 189.728 189.243 191.698 191.203 189.243 188.687 191.203 190.649 191.203 190.649 192.64 192.088 191.698 191.203 193.143 192.64 186.608 186.063 189.243 188.687 187.065 186.608 189.728 189.243 183.538 183.098 187.065 186.608 183.098 182.591 186.608 186.063 154.216 140.788 153.984 140.59 154.376 140.919 154.216 140.788 140.919 123.308 140.788 123.143 140.788 123.143 140.59 122.941 196.738 195.714 196.626 195.602 196.626 195.602 196.473 195.45 197.302 196.626 197.144 196.473 197.415 196.738 197.302 196.626 157.698 157.34 167.931 167.648 157.34 156.901 167.648 167.291 167.648 167.291 175.56 175.293 167.931 167.648 175.757 175.56 187.355 186.874 183.965 183.561 189.899 189.388 187.355 186.874 189.388 188.831 186.874 186.352 186.874 186.352 183.561 183.096 192.373 192.298 194.341 194.269 194.341 194.269 195.784 195.714 194.369 194.341 195.809 195.784 192.408 192.373 194.369 194.341 186.814 186.705 182.557 182.383 186.705 186.542 182.383 182.145 182.383 182.145 176.76 176.452 182.557 182.383 177.005 176.76 193.622 193.156 192.235 191.769 192.235 191.769 190.366 189.899 192.657 192.235 190.787 190.366 194.044 193.622 192.657 192.235 187.442 187.065 190.133 189.728 187.765 187.442 190.495 190.133 184.127 183.859 187.765 187.442 183.859 183.538 187.442 187.065 197.478 197.456 196.805 196.783 197.456 197.388 196.783 196.715 196.783 196.715 195.785 195.717 196.805 196.783 195.808 195.785 197.478 197.87 197.456 197.848 197.87 198.004 197.848 197.982 197.848 197.982 197.78 197.914 197.456 197.848 197.388 197.78 191.769 191.257 189.899 189.388 193.156 192.644 191.769 191.257 192.644 192.087 191.257 190.7 191.257 190.7 189.388 188.831 193.642 193.085 192.644 192.087 194.153 193.642 193.156 192.644 194.826 194.315 194.153 193.642 194.315 193.758 193.642 193.085 190.013 189.911 186.705 186.542 190.07 190.013 186.814 186.705 192.55 192.528 190.07 190.013 192.528 192.46 190.013 189.911 192.133 191.698 193.599 193.143 192.523 192.133 194.008 193.599 190.495 190.133 192.523 192.133 190.133 189.728 192.133 191.698 196.829 195.809 196.806 195.784 196.806 195.784 196.738 195.714 197.482 196.806 197.415 196.738 197.505 196.829 197.482 196.806 198.004 197.887 197.982 197.864 197.887 197.505 197.864 197.482 197.864 197.482 197.796 197.415 197.982 197.864 197.914 197.796 196.091 196.483 195.715 196.107 196.422 196.814 196.091 196.483 196.814 196.948 196.483 196.617 196.483 196.617 196.107 196.241 195.043 194.008 194.631 193.599 194.631 193.599 194.17 193.143 195.319 194.631 194.853 194.17 195.741 195.043 195.319 194.631 192.169 192.005 194.151 193.993 194.151 193.993 195.602 195.45 194.269 194.151 195.714 195.602 192.298 192.169 194.269 194.151 195.218 195.353 194.707 194.841 194.707 194.841 194.15 194.284 194.315 194.707 193.758 194.15 194.826 195.218 194.315 194.707 194.341 193.663 193.784 193.108 194.853 194.17 194.341 193.663 194.17 193.143 193.663 192.64 193.663 192.64 193.108 192.088 195.715 195.293 195.041 194.62 195.293 194.826 194.62 194.153 194.62 194.153 193.622 193.156 195.041 194.62 194.044 193.622 190.366 189.899 187.736 187.355 187.736 187.355 184.25 183.965 188.072 187.736 184.383 184.25 190.787 190.366 188.072 187.736 196.107 196.241 195.685 195.819 195.685 195.819 195.218 195.353 195.293 195.685 194.826 195.218 195.715 196.107 195.293 195.685 197.275 197.117 196.602 196.444 196.602 196.444 195.604 195.446 196.715 196.602 195.717 195.604 197.388 197.275 196.715 196.602 196.117 195.404 195.741 195.043 196.449 195.722 196.117 195.404 195.722 194.645 195.404 194.344 195.404 194.344 195.043 194.008 194.841 194.723 194.284 194.166 195.353 195.235 194.841 194.723 195.235 194.853 194.723 194.341 194.723 194.341 194.166 193.784 197.684 197.302 197.526 197.144 197.801 197.684 197.644 197.526 197.914 197.796 197.801 197.684 197.796 197.415 197.684 197.302 197.667 197.801 197.509 197.644 197.275 197.667 197.117 197.509 197.388 197.78 197.275 197.667 197.78 197.914 197.667 197.801 195.819 195.701 195.353 195.235 196.241 196.123 195.819 195.701 196.123 195.741 195.701 195.319 195.701 195.319 195.235 194.853 196.83 196.449 196.499 196.117 196.499 196.117 196.123 195.741 196.617 196.499 196.241 196.123 196.948 196.83 196.617 196.499 195.417 195.041 194.42 194.044 195.749 195.417 194.75 194.42 196.422 196.091 195.749 195.417 196.091 195.715 195.417 195.041 196.444 196.241 195.446 195.244 197.117 196.914 196.444 196.241 196.914 196.666 196.241 195.993 196.241 195.993 195.244 194.996 197.117 197.509 196.914 197.306 197.509 197.644 197.306 197.441 197.306 197.441 197.058 197.192 196.914 197.306 196.666 197.058 193.033 192.657 191.163 190.787 193.363 193.033 191.495 191.163 194.75 194.42 193.363 193.033 194.42 194.044 193.033 192.657 197.323 196.941 197.075 196.692 197.441 197.323 197.192 197.075 197.644 197.526 197.441 197.323 197.526 197.144 197.323 196.941 196.548 196.422 195.875 195.749 195.875 195.749 194.877 194.75 195.993 195.875 194.996 194.877 196.666 196.548 195.993 195.875 195.604 195.446 194.216 194.058 194.216 194.058 192.344 192.182 194.33 194.216 192.46 192.344 195.717 195.604 194.33 194.216 197.058 197.192 196.94 197.074 196.94 197.074 196.814 196.948 196.548 196.94 196.422 196.814 196.666 197.058 196.548 196.94 197.192 197.075 197.074 196.956 197.075 196.692 196.956 196.573 196.956 196.573 196.83 196.449 197.074 196.956 196.948 196.83 193.806 193.584 195.27 195.054 193.993 193.806 195.45 195.27 192.005 191.804 193.993 193.806 191.804 191.569 193.806 193.584 196.473 195.45 196.28 195.27 196.28 195.27 196.048 195.054 196.941 196.28 196.692 196.048 197.144 196.473 196.941 196.28 192.344 192.182 189.734 189.507 189.734 189.507 186.283 185.901 189.911 189.734 186.542 186.283 192.46 192.344 189.911 189.734 191.087 190.805 193.144 192.851 190.805 190.495 192.851 192.523 192.851 192.523 194.344 194.008 193.144 192.851 194.645 194.344 194.877 194.75 193.492 193.363 193.492 193.363 191.626 191.495 193.612 193.492 191.749 191.626 194.996 194.877 193.612 193.492 193.857 193.612 191.988 191.749 194.058 193.857 192.182 191.988 195.446 195.244 194.058 193.857 195.244 194.996 193.857 193.612 186.31 186.239 189.783 189.737 186.239 186.128 189.737 189.646 189.737 189.646 192.373 192.298 189.783 189.737 192.408 192.373 183.538 178.839 183.098 178.488 178.839 172.707 178.488 172.416 178.488 172.416 178.024 172.041 183.098 178.488 182.591 178.024 196.692 196.048 196.573 195.891 196.048 195.054 195.891 194.854 195.891 194.854 195.722 194.645 196.573 195.891 196.449 195.722 191.332 191.087 193.374 193.144 193.374 193.144 194.854 194.645 193.584 193.374 195.054 194.854 191.569 191.332 193.584 193.374 179.225 178.84 173.586 173.289 179.539 179.225 173.81 173.586 183.965 183.561 179.539 179.225 183.561 183.096 179.225 178.84 189.305 189.07 192.005 191.804 185.712 185.416 189.305 189.07 185.416 185.121 189.07 188.797 189.07 188.797 191.804 191.569 123.542 99.6047 123.503 99.3969 123.875 99.8338 123.542 99.6047 99.8338 50.2593 99.6047 50.3256 99.6047 50.3256 99.3969 50.4224 181.742 175.757 181.619 175.56 181.619 175.56 181.445 175.293 186.239 181.619 186.128 181.445 186.31 181.742 186.239 181.619 164.732 164.513 172.707 172.416 154.376 154.216 164.732 164.513 154.216 153.984 164.513 164.215 164.513 164.215 172.416 172.041 107.352 107.085 62.0338 62.1622 129.328 128.918 107.352 107.085 128.918 128.639 107.085 106.832 107.085 106.832 62.1622 62.3128 166.265 166.055 156.76 156.623 166.409 166.265 156.855 156.76 173.81 173.586 166.409 166.265 173.586 173.289 166.265 166.055 189.646 189.501 192.298 192.169 186.128 185.955 189.646 189.501 185.955 185.712 189.501 189.305 189.501 189.305 192.169 192.005 176.76 176.452 169.456 169.086 169.456 169.086 159.973 159.567 169.77 169.456 160.339 159.973 177.005 176.76 169.77 169.456 179.312 173.057 179.119 172.891 179.119 172.891 178.839 172.707 183.859 179.119 183.538 178.839 184.127 179.312 183.859 179.119 100.18 50.2247 99.8338 50.2593 124.208 100.18 123.875 99.8338 124.835 100.533 124.208 100.18 100.533 50.209 100.18 50.2247 130.227 129.759 107.939 107.661 129.759 129.328 107.661 107.352 107.661 107.352 61.9258 62.0338 107.939 107.661 61.832 61.9258 125.448 100.851 124.835 100.533 125.924 101.122 125.448 100.851 101.122 50.2135 100.851 50.2064 100.851 50.2064 100.533 50.209 128.448 128.371 106.514 106.383 128.371 128.317 106.383 106.266 106.383 106.266 63.0118 63.4123 106.514 106.383 62.7217 63.0118 159.973 159.567 147.643 147.213 147.643 147.213 131.419 131.061 148.026 147.643 131.746 131.419 160.339 159.973 148.026 147.643 126.327 101.337 125.924 101.122 126.681 101.514 126.327 101.337 101.514 50.2481 101.337 50.2271 101.337 50.2271 101.122 50.2135 144.324 126.681 143.922 126.327 143.922 126.327 143.448 125.924 157.34 143.922 156.901 143.448 157.698 144.324 157.34 143.922 128.317 128.213 106.266 106.178 128.213 128.113 106.178 106.185 106.178 106.185 64.0424 65.3299 106.266 106.178 63.4123 64.0424 144.405 144.303 128.213 128.113 144.463 144.405 128.317 128.213 156.855 156.76 144.463 144.405 156.76 156.623 144.405 144.303 173.819 173.93 166.335 166.442 166.335 166.442 156.675 156.834 166.164 166.335 156.44 156.675 173.705 173.819 166.164 166.335 167.03 166.59 157.399 156.936 174.463 174.011 167.03 166.59 174.011 173.705 166.59 166.164 166.59 166.164 156.936 156.44 167.602 167.03 158.033 157.399 168.153 167.602 158.598 158.033 175.583 175.02 168.153 167.602 175.02 174.463 167.602 167.03 98.814 51.4546 98.6466 52.1102 98.6466 52.1102 98.5522 53.3588 123.143 98.6466 122.941 98.5522 123.308 98.814 123.143 98.6466 108.663 108.451 61.6468 61.6909 108.841 108.663 61.6316 61.6468 131.746 131.419 108.841 108.663 131.419 131.061 108.663 108.451 140.879 123.503 140.905 123.401 140.905 123.401 140.917 123.456 154.423 140.905 154.4 140.917 154.453 140.8