# vtk DataFile Version 3.0
#This file was generated by the deal.II library on 2020/5/26 at 18:52:18
ASCII
DATASET UNSTRUCTURED_GRID

POINTS 47736 double
0 0 0
0.466667 0 0
0 0.4 0
0.45119 0.4 0
0.466667 0 0
0.933333 0 0
0.45119 0.4 0
0.902381 0.4 0
0.483333 23.6 0
0.966667 23.6 0
0.466667 24 0
0.933333 24 0
0 23.6 0
0.483333 23.6 0
0 24 0
0.466667 24 0
0 23.2 0
0.5 23.2 0
0 23.6 0
0.483333 23.6 0
0.5 23.2 0
1 23.2 0
0.483333 23.6 0
0.966667 23.6 0
0.933333 0 0
1.4 0 0
0.902381 0.4 0
1.35357 0.4 0
1.4 0 0
1.86667 0 0
1.35357 0.4 0
1.80476 0.4 0
1.45 23.6 0
1.93333 23.6 0
1.4 24 0
1.86667 24 0
0.966667 23.6 0
1.45 23.6 0
0.933333 24 0
1.4 24 0
1.86667 0 0
2.33333 0 0
1.80476 0.4 0
2.25595 0.4 0
2.33333 0 0
2.8 0 0
2.25595 0.4 0
2.70714 0.4 0
2.41667 23.6 0
2.9 23.6 0
2.33333 24 0
2.8 24 0
1.93333 23.6 0
2.41667 23.6 0
1.86667 24 0
2.33333 24 0
2.8 0 0
3.26667 0 0
2.70714 0.4 0
3.15833 0.4 0
3.26667 0 0
3.73333 0 0
3.15833 0.4 0
3.60952 0.4 0
3.38333 23.6 0
3.86667 23.6 0
3.26667 24 0
3.73333 24 0
2.9 23.6 0
3.38333 23.6 0
2.8 24 0
3.26667 24 0
3.73333 0 0
4.2 0 0
3.60952 0.4 0
4.06071 0.400002 0
4.2 0 0
4.66667 0 0
4.06071 0.400002 0
4.51187 0.400017 0
4.35 23.6 0
4.83333 23.6 0
4.2 24 0
4.66667 24 0
3.86667 23.6 0
4.35 23.6 0
3.73333 24 0
4.2 24 0
4.66667 0 0
5.13333 0 0
4.51187 0.400017 0
4.96274 0.40018 0
5.13333 0 0
5.6 0 0
4.96274 0.40018 0
5.412 0.401188 0
5.31667 23.6 0
5.8 23.6 0
5.13333 24 0
5.6 24 0
4.83333 23.6 0
5.31667 23.6 0
4.66667 24 0
5.13333 24 0
7.7656 0.408656 0
8.08564 0.489853 0
7.625 0.8 0
8 0.8 0
7.37297 0.372717 0
7.7656 0.408656 0
7.25 0.8 0
7.625 0.8 0
7.46667 0 0
7.93333 0 0
7.37297 0.372717 0
7.7656 0.408656 0
7.93333 0 0
8.4 0 0
7.7656 0.408656 0
8.08564 0.489853 0
5.6 0 0
6.06667 0 0
5.412 0.401188 0
5.851 0.407784 0
6.06667 0 0
6.53333 0 0
5.851 0.407784 0
6.22598 0.450874 0
8.4 1.5 0
8.20238 1.40048 0
8.4 1 0
8.21539 0.946782 0
8.4 2 0
8.20022 1.8875 0
8.4 1.5 0
8.20238 1.40048 0
8 1.77391 0
8 1.28696 0
8.20022 1.8875 0
8.20238 1.40048 0
8 1.28696 0
8 0.8 0
8.20238 1.40048 0
8.21539 0.946782 0
8.21496 23.0543 0
8.2025 22.599 0
8.4 23 0
8.4 22.5 0
8 23.2 0
8 22.713 0
8.21496 23.0543 0
8.2025 22.599 0
8 22.2261 0
8.20035 22.1121 0
8 22.713 0
8.2025 22.599 0
8.20035 22.1121 0
8.4 22 0
8.2025 22.599 0
8.4 22.5 0
6.28333 23.6 0
6.76667 23.6 0
6.06667 24 0
6.53333 24 0
5.8 23.6 0
6.28333 23.6 0
5.6 24 0
6.06667 24 0
7.69489 23.5856 0
7.5 23.2 0
8.06391 23.5091 0
8 23.2 0
7.69489 23.5856 0
8.06391 23.5091 0
7.93333 24 0
8.4 24 0
7.23333 23.6 0
7.69489 23.5856 0
7.46667 24 0
7.93333 24 0
7.23333 23.6 0
7 23.2 0
7.69489 23.5856 0
7.5 23.2 0
8.4 2 0
8.4 2.5 0
8.20022 1.8875 0
8.20003 2.3805 0
8.4 2.5 0
8.4 3 0
8.20003 2.3805 0
8.2 2.87391 0
8.20005 21.6194 0
8.4 21.5 0
8.20035 22.1121 0
8.4 22 0
8.2 21.1261 0
8.4 21 0
8.20005 21.6194 0
8.4 21.5 0
8.4 3 0
8.4 3.5 0
8.2 2.87391 0
8.2 3.36739 0
8.4 3.5 0
8.4 4 0
8.2 3.36739 0
8.2 3.86087 0
8.2 20.6326 0
8.4 20.5 0
8.2 21.1261 0
8.4 21 0
8.2 20.1391 0
8.4 20 0
8.2 20.6326 0
8.4 20.5 0
7 0 0
7.46667 0 0
7.00198 0.331094 0
7.37297 0.372717 0
7.00198 0.331094 0
7.37297 0.372717 0
6.94022 0.576588 0
7.25 0.8 0
7.00198 0.331094 0
6.94022 0.576588 0
6.69426 0.367442 0
6.75692 0.535711 0
7 0 0
7.00198 0.331094 0
6.53333 0 0
6.69426 0.367442 0
8.4 4.5 0
8.2 4.35435 0
8.4 4 0
8.2 3.86087 0
8.4 5 0
8.2 4.84783 0
8.4 4.5 0
8.2 4.35435 0
8.2 19.6457 0
8.4 19.5 0
8.2 20.1391 0
8.4 20 0
8.2 19.1522 0
8.4 19 0
8.2 19.6457 0
8.4 19.5 0
8.4 5.5 0
8.2 5.3413 0
8.4 5 0
8.2 4.84783 0
8.4 6 0
8.2 5.83478 0
8.4 5.5 0
8.2 5.3413 0
8.2 18.6587 0
8.4 18.5 0
8.2 19.1522 0
8.4 19 0
8.2 18.1652 0
8.4 18 0
8.2 18.6587 0
8.4 18.5 0
8.4 6 0
8.4 6.5 0
8.2 5.83478 0
8.2 6.32826 0
8.4 6.5 0
8.4 7 0
8.2 6.32826 0
8.2 6.82174 0
8.2 17.6717 0
8.4 17.5 0
8.2 18.1652 0
8.4 18 0
8.2 17.1783 0
8.4 17 0
8.2 17.6717 0
8.4 17.5 0
8.4 7.5 0
8.2 7.31522 0
8.4 7 0
8.2 6.82174 0
8.4 8 0
8.2 7.8087 0
8.4 7.5 0
8.2 7.31522 0
8.2 16.6848 0
8.4 16.5 0
8.2 17.1783 0
8.4 17 0
8.2 16.1913 0
8.4 16 0
8.2 16.6848 0
8.4 16.5 0
8.4 8 0
8.4 8.5 0
8.2 7.8087 0
8.2 8.30217 0
8.4 8.5 0
8.4 9 0
8.2 8.30217 0
8.2 8.79565 0
8.2 15.6978 0
8.4 15.5 0
8.2 16.1913 0
8.4 16 0
8.2 15.2043 0
8.4 15 0
8.2 15.6978 0
8.4 15.5 0
8.4 9 0
8.4 9.5 0
8.2 8.79565 0
8.2 9.28913 0
8.4 9.5 0
8.4 10 0
8.2 9.28913 0
8.2 9.78261 0
8.2 14.7109 0
8.4 14.5 0
8.2 15.2043 0
8.4 15 0
8.2 14.2174 0
8.4 14 0
8.2 14.7109 0
8.4 14.5 0
8.4 10.5 0
8.2 10.2761 0
8.4 10 0
8.2 9.78261 0
8.4 11 0
8.2 10.7696 0
8.4 10.5 0
8.2 10.2761 0
8.2 13.7239 0
8.4 13.5 0
8.2 14.2174 0
8.4 14 0
8.2 13.2304 0
8.4 13 0
8.2 13.7239 0
8.4 13.5 0
8.4 11.5 0
8.2 11.263 0
8.4 11 0
8.2 10.7696 0
8.4 12 0
8.2 11.7565 0
8.4 11.5 0
8.2 11.263 0
8.2 12.737 0
8.4 12.5 0
8.2 13.2304 0
8.4 13 0
8.2 12.2435 0
8.4 12 0
8.2 12.737 0
8.4 12.5 0
6.47056 0.554541 0
6.65423 0.648139 0
6.3 0.8 0
6.5 0.8 0
6.22598 0.450874 0
6.47056 0.554541 0
6.1 0.8 0
6.3 0.8 0
6.53333 0 0
6.69426 0.367442 0
6.22598 0.450874 0
6.47056 0.554541 0
6.69426 0.367442 0
6.75692 0.535711 0
6.47056 0.554541 0
6.65423 0.648139 0
6.94022 0.576588 0
7.25 0.8 0
6.82768 0.687981 0
6.875 0.8 0
6.94022 0.576588 0
6.82768 0.687981 0
6.75692 0.535711 0
6.65423 0.648139 0
7.23333 23.6 0
7 23.7333 0
7 23.2 0
6.76667 23.6 0
7.23333 23.6 0
7.46667 24 0
7 23.7333 0
7 24 0
7 23.7333 0
7 24 0
6.76667 23.6 0
6.53333 24 0
8.4 0 0
8.4 0.5 0
8.08564 0.489853 0
8.24539 0.628305 0
8.4 0.5 0
8.4 1 0
8.24539 0.628305 0
8.21539 0.946782 0
8.08564 0.489853 0
8.24539 0.628305 0
8 0.8 0
8.21539 0.946782 0
8.2 12.2435 0
8.13333 12 0
8.4 12 0
8.2 11.7565 0
8.2409 23.3709 0
8.21496 23.0543 0
8.4 23.5 0
8.4 23 0
8.06391 23.5091 0
8.2409 23.3709 0
8.4 24 0
8.4 23.5 0
8.06391 23.5091 0
8 23.2 0
8.2409 23.3709 0
8.21496 23.0543 0
3.92285 19.2089 0
4.35873 19.2071 0
3.92402 19.6155 0
4.36024 19.6131 0
3.48654 19.2104 0
3.92285 19.2089 0
3.48709 19.6173 0
3.92402 19.6155 0
3.04979 19.2095 0
3.48654 19.2104 0
3.04963 19.6194 0
3.48709 19.6173 0
2.61306 19.209 0
3.04979 19.2095 0
2.61199 19.618 0
3.04963 19.6194 0
2.61227 20.4138 0
3.04975 20.4138 0
2.6132 20.8075 0
3.04985 20.8074 0
3.04975 20.4138 0
3.48707 20.4145 0
3.04985 20.8074 0
3.4864 20.8076 0
3.04974 20.0186 0
3.48724 20.0176 0
3.04975 20.4138 0
3.48707 20.4145 0
2.61181 20.0173 0
3.04974 20.0186 0
2.61227 20.4138 0
3.04975 20.4138 0
2.61199 19.618 0
3.04963 19.6194 0
2.61181 20.0173 0
3.04974 20.0186 0
3.04963 19.6194 0
3.48709 19.6173 0
3.04974 20.0186 0
3.48724 20.0176 0
0.432966 19.604 0
0.866169 19.6083 0
0.432331 20.0047 0
0.865158 20.0094 0
0.432331 20.0047 0
0.865158 20.0094 0
0.431771 20.4049 0
0.864168 20.4095 0
0 20 0
0.432331 20.0047 0
0 20.4 0
0.431771 20.4049 0
0 19.6 0
0.432966 19.604 0
0 20 0
0.432331 20.0047 0
5.23131 20.0079 0
5.66598 20.0043 0
5.23131 20.4073 0
5.66612 20.4043 0
5.23107 19.6073 0
5.66553 19.6034 0
5.23131 20.0079 0
5.66598 20.0043 0
5.66553 19.6034 0
6.1 19.6 0
5.66598 20.0043 0
6.1 20 0
5.66598 20.0043 0
6.1 20 0
5.66612 20.4043 0
6.1 20.4 0
0 20.4 0
0.431771 20.4049 0
0 20.8 0
0.433758 20.8025 0
0.431771 20.4049 0
0.864168 20.4095 0
0.433758 20.8025 0
0.867586 20.8051 0
4.35873 19.2071 0
4.79445 19.2057 0
4.36024 19.6131 0
4.79575 19.61 0
4.79445 19.2057 0
5.22993 19.2041 0
4.79575 19.61 0
5.23107 19.6073 0
5.66501 19.202 0
6.1 19.2 0
5.66553 19.6034 0
6.1 19.6 0
5.22993 19.2041 0
5.66501 19.202 0
5.23107 19.6073 0
5.66553 19.6034 0
0.434142 19.2024 0
0.868611 19.2046 0
0.432966 19.604 0
0.866169 19.6083 0
0 19.2 0
0.434142 19.2024 0
0 19.6 0
0.432966 19.604 0
5.23131 20.4073 0
5.66612 20.4043 0
5.23046 20.8047 0
5.66527 20.8023 0
5.66612 20.4043 0
6.1 20.4 0
5.66527 20.8023 0
6.1 20.8 0
1.30395 19.2062 0
1.73965 19.2079 0
1.30084 19.6116 0
1.73679 19.6143 0
0.868611 19.2046 0
1.30395 19.2062 0
0.866169 19.6083 0
1.30084 19.6116 0
2.17624 19.2085 0
2.61306 19.209 0
2.17407 19.6159 0
2.61199 19.618 0
1.73965 19.2079 0
2.17624 19.2085 0
1.73679 19.6143 0
2.17407 19.6159 0
1.30084 19.6116 0
1.73679 19.6143 0
1.30041 20.0122 0
1.73639 20.0151 0
1.30041 20.0122 0
1.73639 20.0151 0
1.30061 20.4111 0
1.73674 20.4137 0
0.865158 20.0094 0
1.30041 20.0122 0
0.864168 20.4095 0
1.30061 20.4111 0
0.866169 19.6083 0
1.30084 19.6116 0
0.865158 20.0094 0
1.30041 20.0122 0
1.73674 20.4137 0
2.1748 20.413 0
1.73953 20.8074 0
2.17646 20.8072 0
2.1748 20.413 0
2.61227 20.4138 0
2.17646 20.8072 0
2.6132 20.8075 0
1.73679 19.6143 0
2.17407 19.6159 0
1.73639 20.0151 0
2.17416 20.0157 0
2.17407 19.6159 0
2.61199 19.618 0
2.17416 20.0157 0
2.61181 20.0173 0
2.17416 20.0157 0
2.61181 20.0173 0
2.1748 20.413 0
2.61227 20.4138 0
1.73639 20.0151 0
2.17416 20.0157 0
1.73674 20.4137 0
2.1748 20.413 0
4.79646 20.0118 0
5.23131 20.0079 0
4.79621 20.4106 0
5.23131 20.4073 0
4.36112 20.0161 0
4.79646 20.0118 0
4.36052 20.4134 0
4.79621 20.4106 0
4.36024 19.6131 0
4.79575 19.61 0
4.36112 20.0161 0
4.79646 20.0118 0
4.79575 19.61 0
5.23107 19.6073 0
4.79646 20.0118 0
5.23131 20.0079 0
0.864168 20.4095 0
1.30061 20.4111 0
0.867586 20.8051 0
1.30266 20.807 0
1.30061 20.4111 0
1.73674 20.4137 0
1.30266 20.807 0
1.73953 20.8074 0
3.92407 20.4144 0
4.36052 20.4134 0
3.9228 20.8076 0
4.35922 20.808 0
3.48707 20.4145 0
3.92407 20.4144 0
3.4864 20.8076 0
3.9228 20.8076 0
4.36052 20.4134 0
4.79621 20.4106 0
4.35922 20.808 0
4.79509 20.8066 0
4.79621 20.4106 0
5.23131 20.4073 0
4.79509 20.8066 0
5.23046 20.8047 0
3.48724 20.0176 0
3.92475 20.0184 0
3.48707 20.4145 0
3.92407 20.4144 0
3.48709 19.6173 0
3.92402 19.6155 0
3.48724 20.0176 0
3.92475 20.0184 0
3.92402 19.6155 0
4.36024 19.6131 0
3.92475 20.0184 0
4.36112 20.0161 0
3.92475 20.0184 0
4.36112 20.0161 0
3.92407 20.4144 0
4.36052 20.4134 0
4.79286 2.09877 0
5.22857 2.09877 0
4.79286 2.59807 0
5.22857 2.59812 0
4.35714 2.0988 0
4.79286 2.09877 0
4.35714 2.59847 0
4.79286 2.59807 0
0.871429 2.60262 0
1.30714 2.60292 0
0.871429 3.10151 0
1.30714 3.10179 0
1.30714 2.60292 0
1.74286 2.60354 0
1.30714 3.10179 0
1.74286 3.10214 0
1.74286 2.60354 0
2.17857 2.6027 0
1.74286 3.10214 0
2.17857 3.10173 0
2.17857 2.6027 0
2.61429 2.60225 0
[...]
POINT_DATA 47736
SCALARS solution double 1
LOOKUP_TABLE default
8.78978 8.60276 8.73172 8.55183 8.60276 8.24713 8.55183 8.24979 2.26435 2.25108 2.26156 2.24388 2.2689 2.26435 2.27205 2.26156 2.27109 2.27372 2.2689 2.26435 2.27372 2.26436 2.26435 2.25108 8.24713 7.83866 8.24979 7.88756 7.83866 7.41212 7.88756 7.49676 2.22981 2.20204 2.21991 2.19087 2.25108 2.22981 2.24388 2.21991 7.41212 6.98413 7.49676 7.09592 6.98413 6.56419 7.09592 6.69656 2.16932 2.13288 2.15791 2.12198 2.20204 2.16932 2.19087 2.15791 6.56419 6.15789 6.69656 6.30583 6.15789 5.76837 6.30583 5.92808 2.09368 2.05237 2.0838 2.04388 2.13288 2.09368 2.12198 2.0838 5.76837 5.39724 5.92808 5.5658 5.39724 5.0451 5.5658 5.2203 2.00943 1.9652 2.00263 1.96038 2.05237 2.00943 2.04388 2.00263 5.0451 4.71178 5.2203 4.89237 4.71178 4.39597 4.89237 4.58335 1.92001 1.87423 1.91749 1.87436 1.9652 1.92001 1.96038 1.91749 3.17532 3.01825 3.24725 2.98339 3.37623 3.17532 3.46574 3.24725 3.29865 3.10561 3.37623 3.17532 3.10561 2.9663 3.17532 3.01825 4.39597 4.09391 4.58335 4.29999 4.09391 3.80338 4.29999 4.07516 2.77747 2.80046 2.80056 2.85933 2.80175 2.80828 2.77747 2.80046 2.81346 2.82258 2.80828 2.80046 2.82258 2.98339 2.80046 2.85933 1.65337 1.64134 1.64663 1.6341 1.67042 1.64759 1.65337 1.64134 1.64215 1.63554 1.64759 1.64134 1.63554 1.62709 1.64134 1.6341 1.82841 1.78334 1.83158 1.78988 1.87423 1.82841 1.87436 1.83158 1.70228 1.72365 1.67379 1.67042 1.70228 1.67379 1.68078 1.65201 1.74137 1.70228 1.71335 1.68078 1.74137 1.77264 1.70228 1.72365 2.80175 2.84088 2.80828 2.84327 2.84088 2.88251 2.84327 2.88548 1.63593 1.62639 1.63554 1.62709 1.6417 1.63125 1.63593 1.62639 2.88251 2.92122 2.88548 2.92733 2.92122 2.95351 2.92733 2.96484 1.65189 1.64075 1.6417 1.63125 1.66625 1.65461 1.65189 1.64075 3.53441 3.29865 3.57824 3.37623 3.57824 3.37623 3.63935 3.46574 3.57824 3.63935 3.76694 3.74966 3.53441 3.57824 3.80338 3.76694 2.97678 2.99488 2.95351 2.96484 2.98966 3.01518 2.97678 2.99488 1.68569 1.6736 1.66625 1.65461 1.7119 1.69928 1.68569 1.6736 2.99216 3.02488 2.98966 3.01518 2.98519 3.02441 2.99216 3.02488 1.74648 1.73316 1.7119 1.69928 1.78983 1.77571 1.74648 1.73316 2.98519 2.97007 3.02441 3.01488 2.97007 2.94807 3.01488 2.99763 1.84101 1.82609 1.78983 1.77571 1.89827 1.88268 1.84101 1.82609 2.92034 2.97391 2.94807 2.99763 2.88777 2.94478 2.92034 2.97391 1.95978 1.94364 1.89827 1.88268 2.02394 2.00738 1.95978 1.94364 2.88777 2.85109 2.94478 2.91108 2.85109 2.81084 2.91108 2.87345 2.08949 2.07257 2.02394 2.00738 2.15546 2.13823 2.08949 2.07257 2.81084 2.76741 2.87345 2.83239 2.76741 2.72111 2.83239 2.78826 2.22112 2.2036 2.15546 2.13823 2.28593 2.26813 2.22112 2.2036 2.67218 2.74135 2.72111 2.78826 2.62077 2.69187 2.67218 2.74135 2.34951 2.33141 2.28593 2.26813 2.41155 2.39314 2.34951 2.33141 2.56704 2.63997 2.62077 2.69187 2.51111 2.58579 2.56704 2.63997 2.47183 2.4531 2.41155 2.39314 2.5302 2.51111 2.47183 2.4531 3.93893 3.82997 4.10951 3.96383 4.07516 3.93893 4.21819 4.10951 3.80338 3.76694 4.07516 3.93893 3.76694 3.74966 3.93893 3.82997 3.63935 3.46574 3.71916 3.69589 3.63935 3.71916 3.74966 3.82997 1.74137 1.75832 1.77264 1.78334 1.74137 1.71335 1.75832 1.75012 1.75832 1.75012 1.78334 1.78988 2.9663 2.89669 3.01825 2.92787 2.89669 2.80056 2.92787 2.85933 3.01825 2.92787 2.98339 2.85933 2.5302 2.57405 2.51111 2.58579 1.66104 1.65337 1.6541 1.64663 1.67379 1.66104 1.65201 1.6541 1.67379 1.67042 1.66104 1.65337 61.3614 61.5252 60.7449 60.8242 61.2161 61.3614 60.6599 60.7449 61.0884 61.2161 60.5702 60.6599 60.9732 61.0884 60.4839 60.5702 59.0194 59.0878 58.1964 58.2771 59.0878 59.1314 58.2771 58.3212 59.876 59.935 59.0878 59.1314 59.8082 59.876 59.0194 59.0878 60.4839 60.5702 59.8082 59.876 60.5702 60.6599 59.876 59.935 60.0724 60.148 59.3626 59.4551 59.3626 59.4551 58.4565 58.5782 59.2698 59.3626 58.3383 58.4565 59.9997 60.0724 59.2698 59.3626 59.9992 59.9573 59.0671 58.988 60.9435 60.9672 59.9992 59.9573 60.9672 60.9488 59.9573 59.8869 59.9573 59.8869 58.988 58.8875 58.3383 58.4565 57.1506 57.3344 58.4565 58.5782 57.3344 57.5416 61.5252 61.7079 60.8242 60.8936 61.7079 61.9062 60.8936 60.9435 62.1016 62.2465 60.9672 60.9488 61.9062 62.1016 60.9435 60.9672 60.5597 60.621 60.0724 60.148 60.509 60.5597 59.9997 60.0724 59.0671 58.988 58.1404 58.0135 58.988 58.8875 58.0135 57.8632 60.6934 60.7759 60.2279 60.3113 60.621 60.6934 60.148 60.2279 60.8693 60.9732 60.3977 60.4839 60.7759 60.8693 60.3113 60.3977 60.2279 60.3113 59.5499 59.6407 59.5499 59.6407 58.7059 58.8219 59.4551 59.5499 58.5782 58.7059 60.148 60.2279 59.4551 59.5499 58.8219 58.9315 57.9287 58.0806 58.9315 59.0194 58.0806 58.1964 60.3113 60.3977 59.6407 59.7298 60.3977 60.4839 59.7298 59.8082 59.7298 59.8082 58.9315 59.0194 59.6407 59.7298 58.8219 58.9315 60.0127 59.9992 59.1198 59.0671 60.002 60.0127 59.1469 59.1198 60.8242 60.8936 60.002 60.0127 60.8936 60.9435 60.0127 59.9992 58.5782 58.7059 57.5416 57.7451 58.7059 58.8219 57.7451 57.9287 59.1513 59.1469 58.3294 58.2999 59.1314 59.1513 58.3212 58.3294 59.1469 59.1198 58.2999 58.2373 59.1198 59.0671 58.2373 58.1404 59.935 59.9745 59.1314 59.1513 60.6599 60.7449 59.935 59.9745 60.7449 60.8242 59.9745 60.002 59.9745 60.002 59.1513 59.1469 46.9213 46.7309 48.6012 48.5514 47.0977 46.9213 48.6483 48.6012 49.0805 49.0173 49.686 49.6651 49.0173 48.9578 49.6651 49.6527 48.9578 48.8991 49.6527 49.65 48.8991 48.8446 49.65 49.6605 47.2594 47.0977 48.6947 48.6483 47.4062 47.2594 48.7417 48.6947 48.0198 47.9056 49.0173 48.9578 48.1296 48.0198 49.0805 49.0173 48.6483 48.6012 49.8925 50.0102 48.6012 48.5514 50.0102 50.1455 47.7894 47.6698 48.8991 48.8446 47.9056 47.7894 48.9578 48.8991 48.7417 48.6947 49.7318 49.7996 48.6947 48.6483 49.7996 49.8925 48.5514 48.4976 50.1455 50.2798 48.4976 48.4329 50.2798 50.3796 46.5383 46.3582 48.4976 48.4329 46.7309 46.5383 48.5514 48.4976 49.2129 49.145 49.745 49.713 49.145 49.0805 49.713 49.686 48.2364 48.1296 49.145 49.0805 48.3395 48.2364 49.2129 49.145 48.8446 48.7917 49.6605 49.6866 48.7917 48.7417 49.6866 49.7318 47.5418 47.4062 48.7917 48.7417 47.6698 47.5418 48.8446 48.7917 195.835 195.768 194.46 194.393 194.46 194.393 192.606 192.538 194.483 194.46 192.629 192.606 195.858 195.835 194.483 194.46 189.808 189.323 191.761 191.265 191.265 190.712 192.69 192.138 191.761 191.265 193.194 192.69 196.779 195.764 196.668 195.652 196.668 195.652 196.515 195.501 197.338 196.668 197.18 196.515 197.45 196.779 197.338 196.668 192.452 192.377 194.404 194.331 194.404 194.331 195.834 195.764 194.432 194.404 195.859 195.834 192.486 192.452 194.432 194.404 193.673 193.206 192.298 191.831 192.298 191.831 190.445 189.978 192.719 192.298 190.866 190.445 194.094 193.673 192.719 192.298 197.514 197.492 196.847 196.824 197.492 197.424 196.824 196.757 196.824 196.757 195.835 195.768 196.847 196.824 195.858 195.835 197.514 197.903 197.492 197.88 197.903 198.036 197.88 198.013 197.88 198.013 197.813 197.946 197.492 197.88 197.424 197.813 191.831 191.32 189.978 189.467 193.206 192.695 191.831 191.32 193.683 193.127 192.695 192.138 194.195 193.683 193.206 192.695 194.862 194.351 194.195 193.683 194.351 193.794 193.683 193.127 192.629 192.606 190.171 190.115 192.196 191.761 193.649 193.194 192.586 192.196 194.059 193.649 190.574 190.212 192.586 192.196 190.212 189.808 192.196 191.761 196.871 195.859 196.847 195.834 196.847 195.834 196.779 195.764 197.518 196.847 197.45 196.779 197.541 196.871 197.518 196.847 198.036 197.919 198.013 197.897 197.919 197.541 197.897 197.518 197.897 197.518 197.829 197.45 198.013 197.897 197.946 197.829 196.127 196.515 195.751 196.139 196.458 196.847 196.127 196.515 196.847 196.98 196.515 196.649 196.515 196.649 196.139 196.272 195.084 194.059 194.673 193.649 194.673 193.649 194.212 193.194 195.355 194.673 194.889 194.212 195.777 195.084 195.355 194.673 192.248 192.084 194.214 194.056 194.214 194.056 195.652 195.501 194.331 194.214 195.764 195.652 192.377 192.248 194.331 194.214 195.251 195.384 194.739 194.872 194.739 194.872 194.182 194.315 194.351 194.739 193.794 194.182 194.862 195.251 194.351 194.739 194.377 193.704 193.82 193.15 194.889 194.212 194.377 193.704 194.212 193.194 193.704 192.69 193.704 192.69 193.15 192.138 195.751 195.329 195.083 194.662 195.329 194.862 194.662 194.195 194.662 194.195 193.673 193.206 195.083 194.662 194.094 193.673 196.139 196.272 195.718 195.851 195.718 195.851 195.251 195.384 195.329 195.718 194.862 195.251 195.751 196.139 195.329 195.718 197.311 197.153 196.644 196.486 196.644 196.486 195.655 195.497 196.757 196.644 195.768 195.655 197.424 197.311 196.757 196.644 196.153 195.446 195.777 195.084 196.484 195.763 196.153 195.446 195.763 194.695 195.446 194.395 195.446 194.395 195.084 194.059 194.872 194.755 194.315 194.198 195.384 195.267 194.872 194.755 195.267 194.889 194.755 194.377 194.755 194.377 194.198 193.82 197.716 197.338 197.558 197.18 197.833 197.716 197.675 197.558 197.946 197.829 197.833 197.716 197.829 197.45 197.716 197.338 197.7 197.833 197.542 197.675 197.311 197.7 197.153 197.542 197.424 197.813 197.311 197.7 197.813 197.946 197.7 197.833 195.851 195.734 195.384 195.267 196.272 196.155 195.851 195.734 196.155 195.777 195.734 195.355 195.734 195.355 195.267 194.889 196.863 196.484 196.532 196.153 196.532 196.153 196.155 195.777 196.649 196.532 196.272 196.155 196.98 196.863 196.649 196.532 195.459 195.083 194.47 194.094 195.79 195.459 194.801 194.47 196.458 196.127 195.79 195.459 196.127 195.751 195.459 195.083 196.486 196.283 195.497 195.294 197.153 196.95 196.486 196.283 196.95 196.702 196.283 196.035 196.283 196.035 195.294 195.046 197.153 197.542 196.95 197.339 197.542 197.675 197.339 197.472 197.339 197.472 197.091 197.224 196.95 197.339 196.702 197.091 193.095 192.719 191.242 190.866 193.426 193.095 191.573 191.242 194.801 194.47 193.426 193.095 194.47 194.094 193.095 192.719 197.355 196.976 197.107 196.728 197.472 197.355 197.224 197.107 197.675 197.558 197.472 197.355 197.558 197.18 197.355 196.976 196.584 196.458 195.916 195.79 195.916 195.79 194.927 194.801 196.035 195.916 195.046 194.927 196.702 196.584 196.035 195.916 195.655 195.497 194.279 194.121 194.279 194.121 192.422 192.261 194.393 194.279 192.538 192.422 195.768 195.655 194.393 194.279 197.091 197.224 196.973 197.106 196.973 197.106 196.847 196.98 196.584 196.973 196.458 196.847 196.702 197.091 196.584 196.973 197.224 197.107 197.106 196.989 197.107 196.728 196.989 196.609 196.989 196.609 196.863 196.484 197.106 196.989 196.98 196.863 193.869 193.647 195.321 195.105 194.056 193.869 195.501 195.321 192.084 191.884 194.056 193.869 191.884 191.649 193.869 193.647 196.515 195.501 196.322 195.321 196.322 195.321 196.09 195.105 196.976 196.322 196.728 196.09 197.18 196.515 196.976 196.322 191.167 190.885 193.207 192.914 190.885 190.574 192.914 192.586 192.914 192.586 194.395 194.059 193.207 192.914 194.695 194.395 194.927 194.801 193.554 193.426 193.554 193.426 191.704 191.573 193.675 193.554 191.827 191.704 195.046 194.927 193.675 193.554 193.92 193.675 192.066 191.827 194.121 193.92 192.261 192.066 195.497 195.294 194.121 193.92 195.294 195.046 193.92 193.675 196.728 196.09 196.609 195.933 196.09 195.105 195.933 194.904 195.933 194.904 195.763 194.695 196.609 195.933 196.484 195.763 191.412 191.167 193.437 193.207 193.437 193.207 194.904 194.695 193.647 193.437 195.105 194.904 191.649 191.412 193.647 193.437 189.407 189.173 192.084 191.884 189.173 188.9 191.884 191.649 191.704 191.573 188.583 188.378 191.827 191.704 188.776 188.583 188.41 188.15 191.167 190.885 188.15 187.868 190.885 190.574 188.67 188.41 191.412 191.167 188.9 188.67 191.649 191.412 60.9488 61.0635 59.8869 58.7642 59.8869 58.7642 58.8875 57.2164 62.2465 62.8946 60.9488 61.0635 1.72365 4.81986 1.67042 1.64759 2.97299 2.98731 2.94478 2.95996 2.98731 3.00034 2.95996 2.97391 3.00034 3.01193 2.97391 2.9865 3.01193 3.02197 2.9865 2.99763 2.03167 2.02394 1.99918 1.99162 1.99918 1.99162 1.96714 1.95978 2.94082 2.91108 2.92316 2.89272 2.92316 2.89272 2.90455 2.87345 2.97299 2.94478 2.95746 2.92845 2.95746 2.92845 2.94082 2.91108 2.09752 2.08949 2.0645 2.05662 2.0645 2.05662 2.03167 2.02394 2.16373 2.15546 2.13063 2.12248 2.13063 2.12248 2.09752 2.08949 2.86471 2.83239 2.84358 2.81069 2.84358 2.81069 2.82171 2.78826 2.90455 2.87345 2.88505 2.85332 2.88505 2.85332 2.86471 2.83239 2.2296 2.22112 2.19675 2.18837 2.19675 2.18837 2.16373 2.15546 2.29461 2.28593 2.26225 2.25366 2.26225 2.25366 2.2296 2.22112 2.72734 2.7519 2.69187 2.71692 2.7519 2.77584 2.71692 2.74135 2.77584 2.79911 2.74135 2.76514 2.79911 2.82171 2.76514 2.78826 2.35837 2.34951 2.32667 2.3179 2.32667 2.3179 2.29461 2.28593 2.4206 2.41155 2.38969 2.38073 2.38969 2.38073 2.35837 2.34951 2.62309 2.65002 2.58579 2.61316 2.65002 2.67638 2.61316 2.63997 2.67638 2.70215 2.63997 2.66622 2.70215 2.72734 2.66622 2.69187 2.48107 2.47183 2.45107 2.44192 2.45107 2.44192 2.4206 2.41155 2.53964 2.5302 2.51061 2.50127 2.51061 2.50127 2.48107 2.47183 3.04341 3.04324 3.02441 3.02585 3.04324 3.04056 3.02585 3.02488 3.04056 3.03523 3.02488 3.02135 3.03523 3.02721 3.02135 3.01518 1.7957 1.78983 1.77275 1.76709 1.77757 1.77275 1.75666 1.75196 1.77275 1.76709 1.75196 1.74648 3.03676 3.01488 3.03029 3.00713 3.03029 3.00713 3.02197 2.99763 3.04341 3.02441 3.04118 3.02068 3.04118 3.02068 3.03676 3.01488 1.8474 1.84101 1.82067 1.81455 1.82067 1.81455 1.7957 1.78983 1.90518 1.89827 1.87567 1.86901 1.87567 1.86901 1.8474 1.84101 1.96714 1.95978 1.93576 1.92861 1.93576 1.92861 1.90518 1.89827 61.2161 61.3843 61.2867 61.4664 61.2867 61.4664 61.3614 61.5556 61.3614 61.5556 61.4409 61.6534 61.4409 61.6534 61.5252 61.761 60.9732 61.113 61.0293 61.1738 61.0293 61.1738 61.0884 61.2389 61.0884 61.2389 61.1505 61.3089 61.1505 61.3089 61.2161 61.3843 61.5252 61.761 61.6142 61.8803 61.6142 61.8803 61.7079 62.0135 61.7079 62.0135 61.8059 62.1631 61.8059 62.1631 61.9062 62.3316 62.1016 62.7282 62.1844 62.9412 62.1844 62.9412 62.2465 63.1315 61.9062 62.3316 62.0066 62.5208 62.0066 62.5208 62.1016 62.7282 60.509 60.665 60.5331 60.6815 60.5331 60.6815 60.5597 60.7022 60.5597 60.7022 60.589 60.7272 60.589 60.7272 60.621 60.756 60.621 60.756 60.6559 60.7887 60.6559 60.7887 60.6934 60.8248 60.6934 60.8248 60.7334 60.8643 60.7334 60.8643 60.7759 60.9072 60.7759 60.9072 60.8213 60.9534 60.8213 60.9534 60.8693 61.003 60.8693 61.003 60.9199 61.0561 60.9199 61.0561 60.9732 61.113 49.6651 49.6577 49.8404 49.8405 49.6577 49.6527 49.8405 49.8434 49.686 49.6746 49.8469 49.8427 49.6746 49.6651 49.8427 49.8404 49.65 49.6534 49.859 49.8729 49.6534 49.6605 49.8729 49.8916 49.6527 49.6499 49.8434 49.8493 49.6499 49.65 49.8493 49.859 50.0102 50.0765 50.5316 50.6689 50.0765 50.1455 50.6689 50.8255 49.8925 49.9485 50.3095 50.4123 49.9485 50.0102 50.4123 50.5316 49.7996 49.8429 50.1459 50.2212 49.8429 49.8925 50.2212 50.3095 49.7318 49.7627 50.028 50.0819 49.7627 49.7996 50.0819 50.1459 50.1455 50.2147 50.8255 51.0007 50.2147 50.2798 51.0007 51.1894 50.2798 50.337 51.1894 51.3797 50.337 50.3796 51.3797 51.5499 49.745 49.7284 49.8759 49.8675 49.7284 49.713 49.8675 49.8596 49.713 49.6988 49.8596 49.8527 49.6988 49.686 49.8527 49.8469 49.6866 49.7066 49.9459 49.983 49.7066 49.7318 49.983 50.028 49.6605 49.6713 49.8916 49.9157 49.6713 49.6866 49.9157 49.9459 51.9714 52.7198 56.8682 58.8638 50.3796 51.1341 51.5499 54.2702 51.1341 51.9714 54.2702 56.8682 21.3305 23.2649 15.9584 21.1663 2.93209 2.9299 2.95377 2.95053 2.9299 2.92733 2.95053 2.94684 2.95377 2.95053 2.97443 2.96987 2.95053 2.94684 2.96987 2.96484 3.02721 3.0165 3.01518 3.00633 3.0165 3.00321 3.00633 2.99488 3.01102 2.99367 3.00321 2.98757 2.99367 2.97443 2.98757 2.96987 3.00321 2.98757 2.99488 2.98097 2.98757 2.96987 2.98097 2.96484 1.7219 1.71721 1.70787 1.70311 1.71721 1.7119 1.70311 1.69783 1.70787 1.70311 1.6958 1.69097 1.70311 1.69783 1.69097 1.68569 1.75666 1.75196 1.73811 1.73345 1.75196 1.74648 1.73345 1.72808 1.73811 1.73345 1.7219 1.71721 1.73345 1.72808 1.71721 1.7119 2.60575 2.63333 2.58988 2.60664 2.58988 2.60664 2.57405 2.57998 2.60664 2.62309 2.57998 2.58579 2.57763 2.60575 2.5649 2.58988 2.53964 2.5649 2.5302 2.55218 2.5649 2.58988 2.55218 2.57405 57.1506 57.2375 56.3608 56.495 57.2375 57.3344 56.495 56.6522 56.495 56.6522 55.5516 55.9386 44.2905 43.8797 45.4073 45.2427 43.8797 43.1616 45.2427 45.0604 45.4073 45.2427 46.5383 46.4465 45.2427 45.0604 46.4465 46.3582 163.487 163.334 168.22 168.084 163.334 163.17 168.084 167.938 163.17 162.978 167.938 167.766 162.978 162.776 167.766 167.582 167.938 167.766 172.124 171.975 167.766 167.582 171.975 171.817 172.124 171.975 175.783 175.655 171.975 171.817 175.655 175.517 168.22 168.084 172.359 172.247 168.084 167.938 172.247 172.124 172.359 172.247 175.98 175.887 172.247 172.124 175.887 175.783 165.021 164.916 169.24 169.116 164.916 164.801 169.116 168.981 169.24 169.116 172.93 172.789 169.116 168.981 172.789 172.637 160.229 160.139 165.021 164.916 160.139 160.037 164.916 164.801 160.037 159.908 164.801 164.656 159.908 159.769 164.656 164.501 164.801 164.656 168.981 168.816 164.656 164.501 168.816 168.64 168.981 168.816 172.637 172.454 168.816 168.64 172.454 172.261 166.552 166.452 162.155 162.072 166.452 166.34 162.072 161.978 162.155 162.072 157.135 157.071 166.698 166.631 162.276 162.221 166.631 166.552 162.221 162.155 162.276 162.221 157.231 157.189 162.221 162.155 157.189 157.135 174.032 173.925 170.607 170.519 173.925 173.807 170.519 170.419 170.607 170.519 166.698 166.631 170.519 170.419 166.631 166.552 173.807 173.663 170.419 170.296 173.663 173.509 170.296 170.161 170.419 170.296 166.552 166.452 170.296 170.161 166.452 166.34 176.981 176.833 173.601 173.439 176.833 176.674 173.439 173.265 173.601 173.439 169.743 169.564 173.439 173.265 169.564 169.375 169.743 169.564 165.355 165.167 169.564 169.375 165.167 164.968 165.355 165.167 160.345 160.148 165.167 164.968 160.148 159.94 170.055 169.905 165.692 165.529 169.905 169.743 165.529 165.355 165.692 165.529 160.709 160.532 165.529 165.355 160.532 160.345 177.225 177.109 173.877 173.745 177.109 176.981 173.745 173.601 173.877 173.745 170.055 169.905 173.745 173.601 169.905 169.743 174.049 174.109 170.576 170.637 174.109 174.157 170.637 170.687 170.576 170.637 166.631 166.689 170.637 170.687 166.689 166.735 166.631 166.689 162.152 162.223 166.689 166.735 162.223 162.283 162.152 162.223 157.059 157.142 162.223 162.283 157.142 157.215 166.463 166.552 161.952 162.057 166.552 166.631 162.057 162.152 161.952 162.057 156.827 156.948 162.057 162.152 156.948 157.059 173.937 173.999 170.436 170.512 173.999 174.049 170.512 170.576 170.436 170.512 166.463 166.552 170.512 170.576 166.552 166.631 167.326 167.111 162.861 162.639 167.111 166.888 162.639 162.41 162.861 162.639 157.783 157.557 162.639 162.41 157.557 157.322 166.888 166.679 162.41 162.185 166.679 166.463 162.185 161.952 162.41 162.185 157.322 157.079 162.185 161.952 157.079 156.827 167.896 167.616 163.461 163.166 167.616 167.326 163.166 162.861 163.461 163.166 158.415 158.104 163.166 162.861 158.104 157.783 168.445 168.176 164.018 163.745 168.176 167.896 163.745 163.461 164.018 163.745 158.977 158.701 163.745 163.461 158.701 158.415 175.808 175.534 172.367 172.093 175.534 175.248 172.093 171.808 172.367 172.093 168.445 168.176 172.093 171.808 168.176 167.896 161.241 161.065 166.164 166.016 161.065 160.88 166.016 165.859 166.164 166.016 170.473 170.338 166.016 165.859 170.338 170.195 170.473 170.338 174.244 174.121 170.338 170.195 174.121 173.99 166.556 166.364 170.858 170.67 166.364 166.164 170.67 170.473 170.858 170.67 174.621 174.437 170.67 170.473 174.437 174.244 161.635 161.443 166.556 166.364 161.443 161.241 166.364 166.164 165.202 165.181 169.514 169.461 165.181 165.148 169.461 169.398 169.514 169.461 173.283 173.204 169.461 169.398 173.204 173.115 160.338 160.336 165.202 165.181 160.336 160.324 165.181 165.148 160.324 160.282 165.148 165.09 160.282 160.229 165.09 165.021 165.148 165.09 169.398 169.325 165.09 165.021 169.325 169.24 169.398 169.325 173.115 173.028 169.325 169.24 173.028 172.93 165.562 165.488 169.928 169.842 165.