# vtk DataFile Version 3.0
#This file was generated by the deal.II library on 2020/5/26 at 18:52:07
ASCII
DATASET UNSTRUCTURED_GRID

POINTS 72576 double
0.45119 0.4 0
0.563988 0.4 0
0.447321 0.5 0
0.559152 0.5 0
0.563988 0.4 0
0.676786 0.4 0
0.559152 0.5 0
0.670982 0.5 0
0.447321 0.5 0
0.559152 0.5 0
0.443452 0.6 0
0.554315 0.6 0
0.559152 0.5 0
0.670982 0.5 0
0.554315 0.6 0
0.665179 0.6 0
0.676786 0.4 0
0.789583 0.4 0
0.670982 0.5 0
0.782813 0.5 0
0.789583 0.4 0
0.902381 0.4 0
0.782813 0.5 0
0.894643 0.5 0
0.670982 0.5 0
0.782813 0.5 0
0.665179 0.6 0
0.776042 0.6 0
0.782813 0.5 0
0.894643 0.5 0
0.776042 0.6 0
0.886905 0.6 0
0.443452 0.6 0
0.554315 0.6 0
0.439583 0.7 0
0.549479 0.7 0
0.554315 0.6 0
0.665179 0.6 0
0.549479 0.7 0
0.659375 0.7 0
0.439583 0.7 0
0.549479 0.7 0
0.435714 0.8 0
0.544643 0.8 0
0.549479 0.7 0
0.659375 0.7 0
0.544643 0.8 0
0.653571 0.8 0
0.665179 0.6 0
0.776042 0.6 0
0.659375 0.7 0
0.769271 0.7 0
0.776042 0.6 0
0.886905 0.6 0
0.769271 0.7 0
0.879167 0.7 0
0.659375 0.7 0
0.769271 0.7 0
0.653571 0.8 0
0.7625 0.8 0
0.769271 0.7 0
0.879167 0.7 0
0.7625 0.8 0
0.871429 0.8 0
0 0.4 0
0.112798 0.4 0
0 0.5 0
0.11183 0.5 0
0.112798 0.4 0
0.225595 0.4 0
0.11183 0.5 0
0.223661 0.5 0
0 0.5 0
0.11183 0.5 0
0 0.6 0
0.110863 0.6 0
0.11183 0.5 0
0.223661 0.5 0
0.110863 0.6 0
0.221726 0.6 0
0.225595 0.4 0
0.338393 0.4 0
0.223661 0.5 0
0.335491 0.5 0
0.338393 0.4 0
0.45119 0.4 0
0.335491 0.5 0
0.447321 0.5 0
0.223661 0.5 0
0.335491 0.5 0
0.221726 0.6 0
0.332589 0.6 0
0.335491 0.5 0
0.447321 0.5 0
0.332589 0.6 0
0.443452 0.6 0
0 0.6 0
0.110863 0.6 0
0 0.7 0
0.109896 0.7 0
0.110863 0.6 0
0.221726 0.6 0
0.109896 0.7 0
0.219792 0.7 0
0 0.7 0
0.109896 0.7 0
0 0.8 0
0.108929 0.8 0
0.109896 0.7 0
0.219792 0.7 0
0.108929 0.8 0
0.217857 0.8 0
0.221726 0.6 0
0.332589 0.6 0
0.219792 0.7 0
0.329688 0.7 0
0.332589 0.6 0
0.443452 0.6 0
0.329688 0.7 0
0.439583 0.7 0
0.219792 0.7 0
0.329688 0.7 0
0.217857 0.8 0
0.326786 0.8 0
0.329688 0.7 0
0.439583 0.7 0
0.326786 0.8 0
0.435714 0.8 0
0 0 0
0.116667 0 0
0 0.1 0
0.115699 0.1 0
0.116667 0 0
0.233333 0 0
0.115699 0.1 0
0.231399 0.1 0
0 0.1 0
0.115699 0.1 0
0 0.2 0
0.114732 0.2 0
0.115699 0.1 0
0.231399 0.1 0
0.114732 0.2 0
0.229464 0.2 0
0.233333 0 0
0.35 0 0
0.231399 0.1 0
0.347098 0.1 0
0.35 0 0
0.466667 0 0
0.347098 0.1 0
0.462798 0.1 0
0.231399 0.1 0
0.347098 0.1 0
0.229464 0.2 0
0.344196 0.2 0
0.347098 0.1 0
0.462798 0.1 0
0.344196 0.2 0
0.458929 0.2 0
0 0.2 0
0.114732 0.2 0
0 0.3 0
0.113765 0.3 0
0.114732 0.2 0
0.229464 0.2 0
0.113765 0.3 0
0.22753 0.3 0
0 0.3 0
0.113765 0.3 0
0 0.4 0
0.112798 0.4 0
0.113765 0.3 0
0.22753 0.3 0
0.112798 0.4 0
0.225595 0.4 0
0.229464 0.2 0
0.344196 0.2 0
0.22753 0.3 0
0.341295 0.3 0
0.344196 0.2 0
0.458929 0.2 0
0.341295 0.3 0
0.45506 0.3 0
0.22753 0.3 0
0.341295 0.3 0
0.225595 0.4 0
0.338393 0.4 0
0.341295 0.3 0
0.45506 0.3 0
0.338393 0.4 0
0.45119 0.4 0
0.466667 0 0
0.583333 0 0
0.462798 0.1 0
0.578497 0.1 0
0.583333 0 0
0.7 0 0
0.578497 0.1 0
0.694196 0.1 0
0.462798 0.1 0
0.578497 0.1 0
0.458929 0.2 0
0.573661 0.2 0
0.578497 0.1 0
0.694196 0.1 0
0.573661 0.2 0
0.688393 0.2 0
0.7 0 0
0.816667 0 0
0.694196 0.1 0
0.809896 0.1 0
0.816667 0 0
0.933333 0 0
0.809896 0.1 0
0.925595 0.1 0
0.694196 0.1 0
0.809896 0.1 0
0.688393 0.2 0
0.803125 0.2 0
0.809896 0.1 0
0.925595 0.1 0
0.803125 0.2 0
0.917857 0.2 0
0.458929 0.2 0
0.573661 0.2 0
0.45506 0.3 0
0.568824 0.3 0
0.573661 0.2 0
0.688393 0.2 0
0.568824 0.3 0
0.682589 0.3 0
0.45506 0.3 0
0.568824 0.3 0
0.45119 0.4 0
0.563988 0.4 0
0.568824 0.3 0
0.682589 0.3 0
0.563988 0.4 0
0.676786 0.4 0
0.688393 0.2 0
0.803125 0.2 0
0.682589 0.3 0
0.796354 0.3 0
0.803125 0.2 0
0.917857 0.2 0
0.796354 0.3 0
0.910119 0.3 0
0.682589 0.3 0
0.796354 0.3 0
0.676786 0.4 0
0.789583 0.4 0
0.796354 0.3 0
0.910119 0.3 0
0.789583 0.4 0
0.902381 0.4 0
0.483333 23.6 0
0.604167 23.6 0
0.479167 23.7 0
0.598958 23.7 0
0.604167 23.6 0
0.725 23.6 0
0.598958 23.7 0
0.71875 23.7 0
0.479167 23.7 0
0.598958 23.7 0
0.475 23.8 0
0.59375 23.8 0
0.598958 23.7 0
0.71875 23.7 0
0.59375 23.8 0
0.7125 23.8 0
0.725 23.6 0
0.845833 23.6 0
0.71875 23.7 0
0.838542 23.7 0
0.845833 23.6 0
0.966667 23.6 0
0.838542 23.7 0
0.958333 23.7 0
0.71875 23.7 0
0.838542 23.7 0
0.7125 23.8 0
0.83125 23.8 0
0.838542 23.7 0
0.958333 23.7 0
0.83125 23.8 0
0.95 23.8 0
0.475 23.8 0
0.59375 23.8 0
0.470833 23.9 0
0.588542 23.9 0
0.59375 23.8 0
0.7125 23.8 0
0.588542 23.9 0
0.70625 23.9 0
0.470833 23.9 0
0.588542 23.9 0
0.466667 24 0
0.583333 24 0
0.588542 23.9 0
0.70625 23.9 0
0.583333 24 0
0.7 24 0
0.7125 23.8 0
0.83125 23.8 0
0.70625 23.9 0
0.823958 23.9 0
0.83125 23.8 0
0.95 23.8 0
0.823958 23.9 0
0.941667 23.9 0
0.70625 23.9 0
0.823958 23.9 0
0.7 24 0
0.816667 24 0
0.823958 23.9 0
0.941667 23.9 0
0.816667 24 0
0.933333 24 0
0 23.6 0
0.120833 23.6 0
0 23.7 0
0.119792 23.7 0
0.120833 23.6 0
0.241667 23.6 0
0.119792 23.7 0
0.239583 23.7 0
0 23.7 0
0.119792 23.7 0
0 23.8 0
0.11875 23.8 0
0.119792 23.7 0
0.239583 23.7 0
0.11875 23.8 0
0.2375 23.8 0
0.241667 23.6 0
0.3625 23.6 0
0.239583 23.7 0
0.359375 23.7 0
0.3625 23.6 0
0.483333 23.6 0
0.359375 23.7 0
0.479167 23.7 0
0.239583 23.7 0
0.359375 23.7 0
0.2375 23.8 0
0.35625 23.8 0
0.359375 23.7 0
0.479167 23.7 0
0.35625 23.8 0
0.475 23.8 0
0 23.8 0
0.11875 23.8 0
0 23.9 0
0.117708 23.9 0
0.11875 23.8 0
0.2375 23.8 0
0.117708 23.9 0
0.235417 23.9 0
0 23.9 0
0.117708 23.9 0
0 24 0
0.116667 24 0
0.117708 23.9 0
0.235417 23.9 0
0.116667 24 0
0.233333 24 0
0.2375 23.8 0
0.35625 23.8 0
0.235417 23.9 0
0.353125 23.9 0
0.35625 23.8 0
0.475 23.8 0
0.353125 23.9 0
0.470833 23.9 0
0.235417 23.9 0
0.353125 23.9 0
0.233333 24 0
0.35 24 0
0.353125 23.9 0
0.470833 23.9 0
0.35 24 0
0.466667 24 0
0 23.2 0
0.125 23.2 0
0 23.3 0
0.123958 23.3 0
0.125 23.2 0
0.25 23.2 0
0.123958 23.3 0
0.247917 23.3 0
0 23.3 0
0.123958 23.3 0
0 23.4 0
0.122917 23.4 0
0.123958 23.3 0
0.247917 23.3 0
0.122917 23.4 0
0.245833 23.4 0
0.25 23.2 0
0.375 23.2 0
0.247917 23.3 0
0.371875 23.3 0
0.375 23.2 0
0.5 23.2 0
0.371875 23.3 0
0.495833 23.3 0
0.247917 23.3 0
0.371875 23.3 0
0.245833 23.4 0
0.36875 23.4 0
0.371875 23.3 0
0.495833 23.3 0
0.36875 23.4 0
0.491667 23.4 0
0 23.4 0
0.122917 23.4 0
0 23.5 0
0.121875 23.5 0
0.122917 23.4 0
0.245833 23.4 0
0.121875 23.5 0
0.24375 23.5 0
0 23.5 0
0.121875 23.5 0
0 23.6 0
0.120833 23.6 0
0.121875 23.5 0
0.24375 23.5 0
0.120833 23.6 0
0.241667 23.6 0
0.245833 23.4 0
0.36875 23.4 0
0.24375 23.5 0
0.365625 23.5 0
0.36875 23.4 0
0.491667 23.4 0
0.365625 23.5 0
0.4875 23.5 0
0.24375 23.5 0
0.365625 23.5 0
0.241667 23.6 0
0.3625 23.6 0
0.365625 23.5 0
0.4875 23.5 0
0.3625 23.6 0
0.483333 23.6 0
0.5 23.2 0
0.625 23.2 0
0.495833 23.3 0
0.619792 23.3 0
0.625 23.2 0
0.75 23.2 0
0.619792 23.3 0
0.74375 23.3 0
0.495833 23.3 0
0.619792 23.3 0
0.491667 23.4 0
0.614583 23.4 0
0.619792 23.3 0
0.74375 23.3 0
0.614583 23.4 0
0.7375 23.4 0
0.75 23.2 0
0.875 23.2 0
0.74375 23.3 0
0.867708 23.3 0
0.875 23.2 0
1 23.2 0
0.867708 23.3 0
0.991667 23.3 0
0.74375 23.3 0
0.867708 23.3 0
0.7375 23.4 0
0.860417 23.4 0
0.867708 23.3 0
0.991667 23.3 0
0.860417 23.4 0
0.983333 23.4 0
0.491667 23.4 0
0.614583 23.4 0
0.4875 23.5 0
0.609375 23.5 0
0.614583 23.4 0
0.7375 23.4 0
0.609375 23.5 0
0.73125 23.5 0
0.4875 23.5 0
0.609375 23.5 0
0.483333 23.6 0
0.604167 23.6 0
0.609375 23.5 0
0.73125 23.5 0
0.604167 23.6 0
0.725 23.6 0
0.7375 23.4 0
0.860417 23.4 0
0.73125 23.5 0
0.853125 23.5 0
0.860417 23.4 0
0.983333 23.4 0
0.853125 23.5 0
0.975 23.5 0
0.73125 23.5 0
0.853125 23.5 0
0.725 23.6 0
0.845833 23.6 0
0.853125 23.5 0
0.975 23.5 0
0.845833 23.6 0
0.966667 23.6 0
1.35357 0.4 0
1.46637 0.4 0
1.34196 0.5 0
1.45379 0.5 0
1.46637 0.4 0
1.57917 0.4 0
1.45379 0.5 0
1.56563 0.5 0
1.34196 0.5 0
1.45379 0.5 0
1.33036 0.6 0
1.44122 0.6 0
1.45379 0.5 0
1.56563 0.5 0
1.44122 0.6 0
1.55208 0.6 0
1.57917 0.4 0
1.69196 0.4 0
1.56563 0.5 0
1.67746 0.5 0
1.69196 0.4 0
1.80476 0.4 0
1.67746 0.5 0
1.78929 0.5 0
1.56563 0.5 0
1.67746 0.5 0
1.55208 0.6 0
1.66295 0.6 0
1.67746 0.5 0
1.78929 0.5 0
1.66295 0.6 0
1.77381 0.6 0
1.33036 0.6 0
1.44122 0.6 0
1.31875 0.7 0
1.42865 0.7 0
1.44122 0.6 0
1.55208 0.6 0
1.42865 0.7 0
1.53854 0.7 0
1.31875 0.7 0
1.42865 0.7 0
1.30714 0.8 0
1.41607 0.8 0
1.42865 0.7 0
1.53854 0.7 0
1.41607 0.8 0
1.525 0.8 0
1.55208 0.6 0
1.66295 0.6 0
1.53854 0.7 0
1.64844 0.7 0
1.66295 0.6 0
1.77381 0.6 0
1.64844 0.7 0
1.75833 0.7 0
1.53854 0.7 0
1.64844 0.7 0
1.525 0.8 0
1.63393 0.8 0
1.64844 0.7 0
1.75833 0.7 0
1.63393 0.8 0
1.74286 0.8 0
0.902381 0.4 0
1.01518 0.4 0
0.894643 0.5 0
1.00647 0.5 0
1.01518 0.4 0
1.12798 0.4 0
1.00647 0.5 0
1.1183 0.5 0
0.894643 0.5 0
1.00647 0.5 0
0.886905 0.6 0
0.997768 0.6 0
1.00647 0.5 0
1.1183 0.5 0
0.997768 0.6 0
1.10863 0.6 0
1.12798 0.4 0
1.24077 0.4 0
1.1183 0.5 0
1.23013 0.5 0
1.24077 0.4 0
1.35357 0.4 0
1.23013 0.5 0
1.34196 0.5 0
1.1183 0.5 0
1.23013 0.5 0
1.10863 0.6 0
1.21949 0.6 0
1.23013 0.5 0
1.34196 0.5 0
1.21949 0.6 0
1.33036 0.6 0
0.886905 0.6 0
0.997768 0.6 0
0.879167 0.7 0
0.989063 0.7 0
0.997768 0.6 0
1.10863 0.6 0
0.989063 0.7 0
1.09896 0.7 0
0.879167 0.7 0
0.989063 0.7 0
0.871429 0.8 0
0.980357 0.8 0
0.989063 0.7 0
1.09896 0.7 0
0.980357 0.8 0
1.08929 0.8 0
1.10863 0.6 0
1.21949 0.6 0
1.09896 0.7 0
1.20885 0.7 0
1.21949 0.6 0
1.33036 0.6 0
1.20885 0.7 0
1.31875 0.7 0
1.09896 0.7 0
1.20885 0.7 0
1.08929 0.8 0
1.19821 0.8 0
1.20885 0.7 0
1.31875 0.7 0
1.19821 0.8 0
1.30714 0.8 0
0.933333 0 0
1.05 0 0
0.925595 0.1 0
1.04129 0.1 0
1.05 0 0
1.16667 0 0
1.04129 0.1 0
1.15699 0.1 0
0.925595 0.1 0
1.04129 0.1 0
0.917857 0.2 0
1.03259 0.2 0
1.04129 0.1 0
1.15699 0.1 0
1.03259 0.2 0
1.14732 0.2 0
1.16667 0 0
1.28333 0 0
1.15699 0.1 0
1.27269 0.1 0
1.28333 0 0
1.4 0 0
1.27269 0.1 0
1.38839 0.1 0
1.15699 0.1 0
1.27269 0.1 0
1.14732 0.2 0
1.26205 0.2 0
1.27269 0.1 0
1.38839 0.1 0
1.26205 0.2 0
1.37679 0.2 0
0.917857 0.2 0
1.03259 0.2 0
0.910119 0.3 0
1.02388 0.3 0
1.03259 0.2 0
1.14732 0.2 0
1.02388 0.3 0
1.13765 0.3 0
0.910119 0.3 0
1.02388 0.3 0
0.902381 0.4 0
1.01518 0.4 0
1.02388 0.3 0
1.13765 0.3 0
[...]
POINT_DATA 72576
SCALARS solution double 1
LOOKUP_TABLE default
8.59863 8.52799 8.60142 8.53081 8.52799 8.45126 8.53081 8.4551 8.60142 8.53081 8.609 8.53773 8.53081 8.4551 8.53773 8.46244 8.45126 8.36957 8.4551 8.37499 8.36957 8.28379 8.37499 8.29106 8.4551 8.37499 8.46244 8.38336 8.37499 8.29106 8.38336 8.30082 8.609 8.53773 8.62008 8.548 8.53773 8.46244 8.548 8.47288 8.62008 8.548 8.63337 8.56094 8.548 8.47288 8.56094 8.48606 8.46244 8.38336 8.47288 8.39452 8.38336 8.30082 8.39452 8.31302 8.47288 8.39452 8.48606 8.4083 8.39452 8.31302 8.4083 8.32763 8.78785 8.75803 8.81336 8.77378 8.75803 8.71554 8.77378 8.72408 8.81336 8.77378 8.84855 8.79783 8.77378 8.72408 8.79783 8.73933 8.71554 8.66175 8.72408 8.66616 8.66175 8.59863 8.66616 8.60142 8.72408 8.66616 8.73933 8.6762 8.66616 8.60142 8.6762 8.609 8.84855 8.79783 8.89576 8.82788 8.79783 8.73933 8.82788 8.75832 8.89576 8.82788 8.9699 8.85645 8.82788 8.75832 8.85645 8.77671 8.73933 8.6762 8.75832 8.68973 8.6762 8.609 8.68973 8.62008 8.75832 8.68973 8.77671 8.70446 8.68973 8.62008 8.70446 8.63337 8.84204 8.84334 8.78462 8.78891 8.84334 8.79671 8.78891 8.75499 8.78462 8.78891 8.76915 8.76089 8.78891 8.75499 8.76089 8.72838 8.79671 8.72996 8.75499 8.69861 8.72996 8.65151 8.69861 8.62836 8.75499 8.69861 8.72838 8.67674 8.69861 8.62836 8.67674 8.61159 8.76915 8.76089 8.77236 8.75262 8.76089 8.72838 8.75262 8.71611 8.77236 8.75262 8.78785 8.75803 8.75262 8.71611 8.75803 8.71554 8.72838 8.67674 8.71611 8.66476 8.67674 8.61159 8.66476 8.60176 8.71611 8.66476 8.71554 8.66175 8.66476 8.60176 8.66175 8.59863 8.65151 8.56522 8.62836 8.54878 8.56522 8.47329 8.54878 8.46251 8.62836 8.54878 8.61159 8.53682 8.54878 8.46251 8.53682 8.455 8.47329 8.37712 8.46251 8.37128 8.37712 8.27771 8.37128 8.27623 8.46251 8.37128 8.455 8.36784 8.37128 8.27623 8.36784 8.27654 8.61159 8.53682 8.60176 8.52988 8.53682 8.455 8.52988 8.4512 8.60176 8.52988 8.59863 8.52799 8.52988 8.4512 8.52799 8.45126 8.455 8.36784 8.4512 8.36721 8.36784 8.27654 8.36721 8.27899 8.4512 8.36721 8.45126 8.36957 8.36721 8.27899 8.36957 8.28379 2.27403 2.27155 2.27275 2.26996 2.27155 2.26853 2.26996 2.26665 2.27275 2.26996 2.27186 2.26876 2.26996 2.26665 2.26876 2.26516 2.26853 2.26497 2.26665 2.26284 2.26497 2.26088 2.26284 2.25854 2.26665 2.26284 2.26516 2.26109 2.26284 2.25854 2.26109 2.25656 2.27186 2.26876 2.27135 2.26793 2.26876 2.26516 2.26793 2.26404 2.27135 2.26793 2.2712 2.26746 2.26793 2.26404 2.26746 2.26328 2.26516 2.26109 2.26404 2.25971 2.26109 2.25656 2.25971 2.25494 2.26404 2.25971 2.26328 2.25868 2.25971 2.25494 2.25868 2.25366 2.27855 2.2782 2.27879 2.27804 2.2782 2.27735 2.27804 2.27679 2.27879 2.27804 2.27939 2.27824 2.27804 2.27679 2.27824 2.27661 2.27735 2.27596 2.27679 2.27503 2.27596 2.27403 2.27503 2.27275 2.27679 2.27503 2.27661 2.27448 2.27503 2.27275 2.27448 2.27186 2.27939 2.27824 2.28032 2.27879 2.27824 2.27661 2.27879 2.27678 2.28032 2.27879 2.28159 2.27968 2.27879 2.27678 2.27968 2.27731 2.27661 2.27448 2.27678 2.2743 2.27448 2.27186 2.2743 2.27135 2.27678 2.2743 2.27731 2.27448 2.2743 2.27135 2.27448 2.2712 2.28074 2.28236 2.27984 2.28081 2.28236 2.28347 2.28081 2.28131 2.27984 2.28081 2.27909 2.2796 2.28081 2.28131 2.2796 2.2796 2.28347 2.28383 2.28131 2.28118 2.28383 2.28339 2.28118 2.28036 2.28131 2.28118 2.2796 2.27901 2.28118 2.28036 2.27901 2.27781 2.27909 2.2796 2.27865 2.27872 2.2796 2.2796 2.27872 2.27828 2.27865 2.27872 2.27855 2.2782 2.27872 2.27828 2.2782 2.27735 2.2796 2.27901 2.27828 2.27728 2.27901 2.27781 2.27728 2.27571 2.27828 2.27728 2.27735 2.27596 2.27728 2.27571 2.27596 2.27403 2.28339 2.28218 2.28036 2.27884 2.28218 2.28022 2.27884 2.27663 2.28036 2.27884 2.27781 2.27597 2.27884 2.27663 2.27597 2.2735 2.28022 2.27754 2.27663 2.27375 2.27754 2.27418 2.27375 2.27024 2.27663 2.27375 2.2735 2.27041 2.27375 2.27024 2.27041 2.26672 2.27781 2.27597 2.27571 2.27355 2.27597 2.2735 2.27355 2.2708 2.27571 2.27355 2.27403 2.27155 2.27355 2.2708 2.27155 2.26853 2.2735 2.27041 2.2708 2.26748 2.27041 2.26672 2.26748 2.2636 2.2708 2.26748 2.26853 2.26497 2.26748 2.2636 2.26497 2.26088 7.91215 7.81441 7.92726 7.83135 7.81441 7.71544 7.83135 7.73413 7.92726 7.83135 7.94348 7.84915 7.83135 7.73413 7.84915 7.75347 7.71544 7.61554 7.73413 7.63589 7.61554 7.51495 7.63589 7.53688 7.73413 7.63589 7.75347 7.6567 7.63589 7.53688 7.6567 7.5591 7.94348 7.84915 7.96093 7.86794 7.84915 7.75347 7.86794 7.77357 7.96093 7.86794 7.97969 7.8878 7.86794 7.77357 7.8878 7.79452 7.75347 7.6567 7.77357 7.67807 7.6567 7.5591 7.67807 7.5817 7.77357 7.67807 7.79452 7.7001 7.67807 7.5817 7.7001 7.60478 8.28379 8.19463 8.29106 8.20387 8.19463 8.10265 8.20387 8.11388 8.29106 8.20387 8.30082 8.21518 8.20387 8.11388 8.21518 8.12683 8.10265 8.00835 8.11388 8.02155 8.00835 7.91215 8.02155 7.92726 8.11388 8.02155 8.12683 8.03615 8.02155 7.92726 8.03615 7.94348 8.30082 8.21518 8.31302 8.22861 8.21518 8.12683 8.22861 8.14158 8.31302 8.22861 8.32763 8.24417 8.22861 8.14158 8.24417 8.15817 8.12683 8.03615 8.14158 8.05224 8.03615 7.94348 8.05224 7.96093 8.14158 8.05224 8.15817 8.06991 8.05224 7.96093 8.06991 7.97969 8.27771 8.17576 8.27623 8.1782 8.17576 8.07184 8.1782 8.07784 8.27623 8.1782 8.27654 8.18198 8.1782 8.07784 8.18198 8.08482 8.07184 7.96639 8.07784 7.97565 7.96639 7.8598 7.97565 7.87204 8.07784 7.97565 8.08482 7.98558 7.97565 7.87204 7.98558 7.88472 8.27654 8.18198 8.27899 8.18738 8.18198 8.08482 8.18738 8.09301 8.27899 8.18738 8.28379 8.19463 8.18738 8.09301 8.19463 8.10265 8.08482 7.98558 8.09301 7.99642 7.98558 7.88472 7.99642 7.89802 8.09301 7.99642 8.10265 8.00835 7.99642 7.89802 8.00835 7.91215 7.8598 7.75237 7.87204 7.76736 7.75237 7.64438 7.76736 7.66191 7.87204 7.76736 7.88472 7.78258 7.76736 7.66191 7.78258 7.67948 7.64438 7.53606 7.66191 7.55593 7.53606 7.42762 7.55593 7.44966 7.66191 7.55593 7.67948 7.5757 7.55593 7.44966 7.5757 7.47146 7.88472 7.78258 7.89802 7.7982 7.78258 7.67948 7.7982 7.69728 7.89802 7.7982 7.91215 7.81441 7.7982 7.69728 7.81441 7.71544 7.67948 7.5757 7.69728 7.59552 7.5757 7.47146 7.59552 7.49318 7.69728 7.59552 7.71544 7.61554 7.59552 7.49318 7.61554 7.51495 2.23977 2.23341 2.23684 2.2304 2.23341 2.22668 2.2304 2.2236 2.23684 2.2304 2.23421 2.22767 2.2304 2.2236 2.22767 2.2208 2.22668 2.21959 2.2236 2.21647 2.21959 2.21218 2.21647 2.20902 2.2236 2.21647 2.2208 2.2136 2.21647 2.20902 2.2136 2.20611 2.23421 2.22767 2.23189 2.22523 2.22767 2.2208 2.22523 2.21825 2.23189 2.22523 2.22985 2.22306 2.22523 2.21825 2.22306 2.21597 2.2208 2.2136 2.21825 2.21098 2.2136 2.20611 2.21098 2.20343 2.21825 2.21098 2.21597 2.2086 2.21098 2.20343 2.2086 2.20097 2.26088 2.2563 2.25854 2.25377 2.2563 2.25123 2.25377 2.24855 2.25854 2.25377 2.25656 2.25159 2.25377 2.24855 2.25159 2.24619 2.25123 2.24571 2.24855 2.2429 2.24571 2.23977 2.2429 2.23684 2.24855 2.2429 2.24619 2.2404 2.2429 2.23684 2.2404 2.23421 2.25656 2.25159 2.25494 2.24975 2.25159 2.24619 2.24975 2.24417 2.25494 2.24975 2.25366 2.24825 2.24975 2.24417 2.24825 2.24246 2.24619 2.2404 2.24417 2.23821 2.2404 2.23421 2.23821 2.23189 2.24417 2.23821 2.24246 2.23632 2.23821 2.23189 2.23632 2.22985 2.27418 2.27017 2.27024 2.26611 2.27017 2.26555 2.26611 2.26141 2.27024 2.26611 2.26672 2.26246 2.26611 2.26141 2.26246 2.25766 2.26555 2.26036 2.26141 2.25618 2.26036 2.25464 2.25618 2.25043 2.26141 2.25618 2.25766 2.25235 2.25618 2.25043 2.25235 2.24656 2.26672 2.26246 2.2636 2.25919 2.26246 2.25766 2.25919 2.25427 2.2636 2.25919 2.26088 2.2563 2.25919 2.25427 2.2563 2.25123 2.25766 2.25235 2.25427 2.24886 2.25235 2.24656 2.24886 2.243 2.25427 2.24886 2.25123 2.24571 2.24886 2.243 2.24571 2.23977 2.25464 2.24842 2.25043 2.24422 2.24842 2.24175 2.24422 2.23756 2.25043 2.24422 2.24656 2.24032 2.24422 2.23756 2.24032 2.23366 2.24175 2.23465 2.23756 2.2305 2.23465 2.22717 2.2305 2.22306 2.23756 2.2305 2.23366 2.22661 2.2305 2.22306 2.22661 2.21919 2.24656 2.24032 2.243 2.23672 2.24032 2.23366 2.23672 2.23003 2.243 2.23672 2.23977 2.23341 2.23672 2.23003 2.23341 2.22668 2.23366 2.22661 2.23003 2.22297 2.22661 2.21919 2.22297 2.21556 2.23003 2.22297 2.22668 2.21959 2.22297 2.21556 2.21959 2.21218 7.10973 7.00855 7.13719 7.03721 7.00855 6.90769 7.03721 6.93748 7.13719 7.03721 7.16443 7.06556 7.03721 6.93748 7.06556 6.96689 6.90769 6.80726 6.93748 6.83812 6.80726 6.70735 6.83812 6.73922 6.93748 6.83812 6.96689 6.86853 6.83812 6.73922 6.86853 6.77059 7.16443 7.06556 7.19153 7.09368 7.06556 6.96689 7.09368 6.99598 7.19153 7.09368 7.21857 7.12163 7.09368 6.99598 7.12163 7.02481 6.96689 6.86853 6.99598 6.89855 6.86853 6.77059 6.89855 6.8015 6.99598 6.89855 7.02481 6.92824 6.89855 6.8015 6.92824 6.832 7.51495 7.41388 7.53688 7.43731 7.41388 7.31255 7.43731 7.33739 7.53688 7.43731 7.5591 7.46088 7.43731 7.33739 7.46088 7.36224 7.31255 7.21111 7.33739 7.2373 7.21111 7.10973 7.2373 7.13719 7.33739 7.2373 7.36224 7.26337 7.2373 7.13719 7.26337 7.16443 7.5591 7.46088 7.5817 7.48467 7.46088 7.36224 7.48467 7.38718 7.5817 7.48467 7.60478 7.50878 7.48467 7.38718 7.50878 7.4123 7.36224 7.26337 7.38718 7.28942 7.26337 7.16443 7.28942 7.19153 7.38718 7.28942 7.4123 7.31551 7.28942 7.19153 7.31551 7.21857 7.42762 7.31924 7.44966 7.34328 7.31924 7.21108 7.34328 7.23698 7.44966 7.34328 7.47146 7.36698 7.34328 7.23698 7.36698 7.26245 7.21108 7.10328 7.23698 7.1309 7.10328 6.99597 7.1309 7.02518 7.23698 7.1309 7.26245 7.15801 7.1309 7.02518 7.15801 7.05382 7.47146 7.36698 7.49318 7.39048 7.36698 7.26245 7.39048 7.2876 7.49318 7.39048 7.51495 7.41388 7.39048 7.2876 7.41388 7.31255 7.26245 7.15801 7.2876 7.18471 7.15801 7.05382 7.18471 7.08197 7.2876 7.18471 7.31255 7.21111 7.18471 7.08197 7.21111 7.10973 6.99597 6.88925 7.02518 6.91994 6.88925 6.78322 6.91994 6.81529 7.02518 6.91994 7.05382 6.95 6.91994 6.81529 6.95 6.84667 6.78322 6.67796 6.81529 6.7113 6.67796 6.57355 6.7113 6.60807 6.81529 6.7113 6.84667 6.74392 6.7113 6.60807 6.74392 6.64184 7.05382 6.95 7.08197 6.97951 6.95 6.84667 6.97951 6.87745 7.08197 6.97951 7.10973 7.00855 6.97951 6.87745 7.00855 6.90769 6.84667 6.74392 6.87745 6.77588 6.74392 6.64184 6.77588 6.67491 6.87745 6.77588 6.90769 6.80726 6.77588 6.67491 6.80726 6.70735 2.17963 2.17088 2.17651 2.16779 2.17088 2.16191 2.16779 2.15886 2.17651 2.16779 2.17356 2.16486 2.16779 2.15886 2.16486 2.15597 2.16191 2.15274 2.15886 2.14975 2.15274 2.14339 2.14975 2.14046 2.15886 2.14975 2.15597 2.1469 2.14975 2.14046 2.1469 2.13766 2.17356 2.16486 2.17079 2.1621 2.16486 2.15597 2.1621 2.15323 2.17079 2.1621 2.16819 2.1595 2.1621 2.15323 2.1595 2.15064 2.15597 2.1469 2.15323 2.14419 2.1469 2.13766 2.14419 2.13499 2.15323 2.14419 2.15064 2.14162 2.14419 2.13499 2.14162 2.13245 2.21218 2.20445 2.20902 2.20129 2.20445 2.19644 2.20129 2.19327 2.20902 2.20129 2.20611 2.19834 2.20129 2.19327 2.19834 2.19032 2.19644 2.18816 2.19327 2.18501 2.18816 2.17963 2.18501 2.17651 2.19327 2.18501 2.19032 2.18205 2.18501 2.17651 2.18205 2.17356 2.20611 2.19834 2.20343 2.19562 2.19834 2.19032 2.19562 2.18756 2.20343 2.19562 2.20097 2.1931 2.19562 2.18756 2.1931 2.18501 2.19032 2.18205 2.18756 2.17928 2.18205 2.17356 2.17928 2.17079 2.18756 2.17928 2.18501 2.1767 2.17928 2.17079 2.1767 2.16819 2.22717 2.21932 2.22306 2.21527 2.21932 2.21114 2.21527 2.20716 2.22306 2.21527 2.21919 2.21144 2.21527 2.20716 2.21144 2.20338 2.21114 2.20265 2.20716 2.19875 2.20265 2.19389 2.19875 2.19006 2.20716 2.19875 2.20338 2.19503 2.19875 2.19006 2.19503 2.18641 2.21919 2.21144 2.21556 2.20783 2.21144 2.20338 2.20783 2.19981 2.21556 2.20783 2.21218 2.20445 2.20783 2.19981 2.20445 2.19644 2.20338 2.19503 2.19981 2.1915 2.19503 2.18641 2.1915 2.18293 2.19981 2.1915 2.19644 2.18816 2.1915 2.18293 2.18816 2.17963 2.19389 2.18486 2.19006 2.18112 2.18486 2.17559 2.18112 2.17195 2.19006 2.18112 2.18641 2.17755 2.18112 2.17195 2.17755 2.16845 2.17559 2.16609 2.17195 2.16255 2.16609 2.15639 2.16255 2.15296 2.17195 2.16255 2.16845 2.15915 2.16255 2.15296 2.15915 2.14964 2.18641 2.17755 2.18293 2.17413 2.17755 2.16845 2.17413 2.16511 2.18293 2.17413 2.17963 2.17088 2.17413 2.16511 2.17088 2.16191 2.16845 2.15915 2.16511 2.15587 2.15915 2.14964 2.15587 2.14645 2.16511 2.15587 2.16191 2.15274 2.15587 2.14645 2.15274 2.14339 6.31451 6.21831 6.34989 6.25445 6.21831 6.123 6.25445 6.15986 6.34989 6.25445 6.38461 6.28989 6.25445 6.15986 6.28989 6.196 6.123 6.02864 6.15986 6.06617 6.02864 5.93525 6.06617 5.97341 6.15986 6.06617 6.196 6.10297 6.06617 5.97341 6.10297 6.01083 6.38461 6.28989 6.41869 6.32469 6.28989 6.196 6.32469 6.23146 6.41869 6.32469 6.45219 6.35885 6.32469 6.23146 6.35885 6.26627 6.196 6.10297 6.23146 6.13907 6.10297 6.01083 6.13907 6.04754 6.23146 6.13907 6.26627 6.17449 6.13907 6.04754 6.17449 6.08355 6.70735 6.60805 6.73922 6.64088 6.60805 6.50943 6.64088 6.54316 6.73922 6.64088 6.77059 6.67315 6.64088 6.54316 6.67315 6.57629 6.50943 6.41157 6.54316 6.44615 6.41157 6.31451 6.44615 6.34989 6.54316 6.44615 6.57629 6.48009 6.44615 6.34989 6.48009 6.38461 6.77059 6.67315 6.8015 6.70491 6.67315 6.57629 6.70491 6.60886 6.8015 6.70491 6.832 6.73621 6.70491 6.60886 6.73621 6.64092 6.57629 6.48009 6.60886 6.51344 6.48009 6.38461 6.51344 6.41869 6.60886 6.51344 6.64092 6.54623 6.51344 6.41869 6.54623 6.45219 6.57355 6.47005 6.60807 6.50567 6.47005 6.36752 6.50567 6.40415 6.60807 6.50567 6.64184 6.5405 6.50567 6.40415 6.5405 6.43997 6.36752 6.26599 6.40415 6.30356 6.26599 6.16552 6.30356 6.20396 6.40415 6.30356 6.43997 6.34032 6.30356 6.20396 6.34032 6.24158 6.64184 6.5405 6.67491 6.57461 6.5405 6.43997 6.57461 6.47505 6.67491 6.57461 6.70735 6.60805 6.57461 6.47505 6.60805 6.50943 6.43997 6.34032 6.47505 6.37631 6.34032 6.24158 6.37631 6.27842 6.47505 6.37631 6.50943 6.41157 6.37631 6.27842 6.41157 6.31451 6.16552 6.06613 6.20396 6.10539 6.06613 5.96786 6.10539 6.00787 6.20396 6.10539 6.24158 6.14381 6.10539 6.00787 6.14381 6.04704 5.96786 5.87073 6.00787 5.91144 5.87073 5.77476 5.91144 5.81611 6.00787 5.91144 6.04704 5.9513 5.91144 5.81611 5.9513 5.85662 6.24158 6.14381 6.27842 6.18144 6.14381 6.04704 6.18144 6.08541 6.27842 6.18144 6.31451 6.21831 6.18144 6.08541 6.21831 6.123 6.04704 5.9513 6.08541 5.99036 5.9513 5.85662 5.99036 5.89633 6.08541 5.99036 6.123 6.02864 5.99036 5.89633 6.02864 5.93525 2.10438 2.09428 2.10176 2.09175 2.09428 2.08406 2.09175 2.08162 2.10176 2.09175 2.09923 2.0893 2.09175 2.08162 2.0893 2.07926 2.08406 2.07373 2.08162 2.07138 2.07373 2.06328 2.07138 2.06104 2.08162 2.07138 2.07926 2.06911 2.07138 2.06104 2.06911 2.05887 2.09923 2.0893 2.09679 2.08694 2.0893 2.07926 2.08694 2.07698 2.09679 2.08694 2.09445 2.08467 2.08694 2.07698 2.08467 2.07478 2.07926 2.06911 2.07698 2.06692 2.06911 2.05887 2.06692 2.05677 2.07698 2.06692 2.07478 2.0648 2.06692 2.05677 2.0648 2.05473 2.14339 2.13387 2.14046 2.131 2.13387 2.12419 2.131 2.12139 2.14046 2.131 2.13766 2.12826 2.131 2.12139 2.12826 2.11871 2.12419 2.11435 2.12139 2.11164 2.11435 2.10438 2.11164 2.10176 2.12139 2.11164 2.11871 2.10903 2.11164 2.10176 2.10903 2.09923 2.13766 2.12826 2.13499 2.12564 2.12826 2.11871 2.12564 2.11615 2.13499 2.12564 2.13245 2.12314 2.12564 2.11615 2.12314 2.1137 2.11871 2.10903 2.11615 2.10653 2.10903 2.09923 2.10653 2.09679 2.11615 2.10653 2.1137 2.10413 2.10653 2.09679 2.10413 2.09445 2.15639 2.14651 2.15296 2.14317 2.14651 2.13644 2.14317 2.13322 2.15296 2.14317 2.14964 2.13996 2.14317 2.13322 2.13996 2.1301 2.13644 2.12621 2.13322 2.1231 2.12621 2.11582 2.1231 2.11283 2.13322 2.1231 2.1301 2.12008 2.1231 2.11283 2.12008 2.10992 2.14964 2.13996 2.14645 2.13685 2.13996 2.1301 2.13685 2.12709 2.14645 2.13685 2.14339 2.13387 2.13685 2.12709 2.13387 2.12419 2.1301 2.12008 2.12709 2.11717 2.12008 2.10992 2.11717 2.10711 2.12709 2.11717 2.12419 2.11435 2.11717 2.10711 2.11435 2.10438 2.11582 2.10529 2.11283 2.10241 2.10529 2.09462 2.10241 2.09186 2.11283 2.10241 2.10992 2.09962 2.10241 2.09186 2.09962 2.08919 2.09462 2.08382 2.09186 2.08119 2.08382 2.0729 2.08119 2.0704 2.09186 2.08119 2.08919 2.07863 2.08119 2.0704 2.07863 2.06796 2.10992 2.09962 2.10711 2.09691 2.09962 2.08919 2.09691 2.08659 2.10711 2.09691 2.10438 2.09428 2.09691 2.08659 2.09428 2.08406 2.08919 2.07863 2.08659 2.07614 2.07863 2.06796 2.07614 2.06559 2.08659 2.07614 2.08406 2.07373 2.07614 2.06559 2.07373 2.06328 5.57187 5.48366 5.61221 5.52446 5.48366 5.39654 5.52446 5.43777 5.61221 5.52446 5.65179 5.56451 5.52446 5.43777 5.56451 5.47825 5.39654 5.3105 5.43777 5.35214 5.3105 5.22555 5.35214 5.26757 5.43777 5.35214 5.47825 5.39303 5.35214 5.26757 5.39303 5.30885 5.65179 5.56451 5.69063 5.60381 5.56451 5.47825 5.60381 5.518 5.69063 5.60381 5.72874 5.64239 5.60381 5.518 5.64239 5.55701 5.47825 5.39303 5.518 5.43319 5.39303 5.30885 5.43319 5.3494 5.518 5.43319 5.55701 5.47261 5.43319 5.3494 5.47261 5.38921 5.93525 5.84285 5.97341 5.88161 5.84285 5.75148 5.88161 5.7908 5.97341 5.88161 6.01083 5.91962 5.88161 5.7908 5.91962 5.82936 5.75148 5.66115 5.7908 5.70099 5.66115 5.57187 5.70099 5.61221 5.7908 5.70099 5.82936 5.74008 5.70099 5.61221 5.74008 5.65179 6.01083 5.91962 6.04754 5.9569 5.91962 5.82936 5.9569 5.86719 6.04754 5.9569 6.08355 5.99348 5.9569 5.86719 5.99348 5.90431 5.82936 5.74008 5.86719 5.77843 5.74008 5.65179 5.77843 5.69063 5.86719 5.77843 5.90431 5.81605 5.77843 5.69063 5.81605 5.72874 5.77476 5.67997 5.81611 5.72191 5.67997 5.58635 5.72191 5.62885 5.81611 5.72191 5.85662 5.76302 5.72191 5.62885 5.76302 5.67053 5.58635 5.49394 5.62885 5.53695 5.49394 5.40273 5.53695 5.4462 5.62885 5.53695 5.67053 5.57914 5.53695 5.4462 5.57914 5.48888 5.85662 5.76302 5.89633 5.80333 5.76302 5.67053 5.80333 5.7114 5.89633 5.80333 5.93525 5.84285 5.80333 5.7114 5.84285 5.75148 5.67053 5.57914 5.7114 5.62054 5.57914 5.48888 5.62054 5.53076 5.7114 5.62054 5.75148 5.66115 5.62054 5.53076 5.66115 5.57187 5.40273 5.31272 5.4462 5.35663 5.31272 5.22391 5.35663 5.26823 5.4462 5.35663 5.48888 5.39976 5.35663 5.26823 5.39976 5.31177 5.22391 5.13631 5.26823 5.181 5.13631 5.04991 5.181 5.09495 5.26823 5.181 5.31177 5.22493 5.181 5.09495 5.22493 5.13923 5.48888 5.39976 5.53076 5.4421 5.39976 5.31177 5.4421 5.35454 5.53076 5.4421 5.57187 5.48366 5.4421 5.35454 5.48366 5.39654 5.31177 5.22493 5.35454 5.26809 5.22493 5.13923 5.26809 5.18277 5.35454 5.26809 5.39654 5.3105 5.26809 5.18277 5.3105 5.22555 2.02055 2.00965 2.01877 2.008 2.00965 1.99868 2.008 1.99716 2.01877 2.008 2.01703 2.00638 2.008 1.99716 2.00638 1.99566 1.99868 1.98764 1.99716 1.98625 1.98764 1.97654 1.98625 1.97529 1.99716 1.98625 1.99566 1.98489 1.98625 1.97529 1.98489 1.97406 2.01703 2.00638 2.01533 2.0048 2.00638 1.99566 2.0048 1.9942 2.01533 2.0048 2.01369 2.00325 2.0048 1.9942 2.00325 1.99277 1.99566 1.98489 1.9942 1.98355 1.98489 1.97406 1.98355 1.97284 1.9942 1.98355 1.99277 1.98223 1.98355 1.97284 1.98223 1.97164 2.06328 2.05274 2.06104 2.0506 2.05274 2.0421 2.0506 2.04008 2.06104 2.0506 2.05887 2.04853 2.0506 2.04008 2.04853 2.03811 2.0421 2.03136 2.04008 2.02946 2.03136 2.02055 2.02946 2.01877 2.04008 2.02946 2.03811 2.02761 2.02946 2.01877 2.02761 2.01703 2.05887 2.04853 2.05677 2.04653 2.04853 2.03811 2.04653 2.0362 2.05677 2.04653 2.05473 2.04458 2.04653 2.0362 2.04458 2.03435 2.03811 2.02761 2.0362 2.0258 2.02761 2.01703 2.0258 2.01533 2.0362 2.0258 2.03435 2.02405 2.0258 2.01533 2.02405 2.01369 2.0729 2.06186 2.0704 2.05949 2.06186 2.05071 2.05949 2.04847 2.0704 2.05949 2.06796 2.05718 2.05949 2.04847 2.05718 2.0463 2.05071 2.03945 2.04847 2.03736 2.03945 2.02808 2.03736 2.02614 2.04847 2.03736 2.0463 2.03531 2.03736 2.02614 2.03531 2.02423 2.06796 2.05718 2.06559 2.05493 2.05718 2.0463 2.05493 2.04417 2.06559 2.05493 2.06328 2.05274 2.05493 2.04417 2.05274 2.0421 2.0463 2.03531 2.04417 2.03331 2.03531 2.02423 2.03331 2.02237 2.04417 2.03331 2.0421 2.03136 2.03331 2.02237 2.03136 2.02055 2.02808 2.01661 2.02614 2.01482 2.01661 2.00505 2.01482 2.00342 2.02614 2.01482 2.02423 2.01307 2.01482 2.00342 2.01307 2.00181 2.00505 1.99339 2.00342 1.99192 1.99339 1.98163 1.99192 1.98034 2.00342 1.99192 2.00181 1.99048 1.99192 1.98034 1.99048 1.97906 2.02423 2.01307 2.02237 2.01134 2.01307 2