# vtk DataFile Version 3.0
#This file was generated by the deal.II library on 2020/5/26 at 18:52:01
ASCII
DATASET UNSTRUCTURED_GRID

POINTS 18144 double
0.45119 0.4 0
0.676786 0.4 0
0.443452 0.6 0
0.665179 0.6 0
0.676786 0.4 0
0.902381 0.4 0
0.665179 0.6 0
0.886905 0.6 0
0.443452 0.6 0
0.665179 0.6 0
0.435714 0.8 0
0.653571 0.8 0
0.665179 0.6 0
0.886905 0.6 0
0.653571 0.8 0
0.871429 0.8 0
0 0.4 0
0.225595 0.4 0
0 0.6 0
0.221726 0.6 0
0.225595 0.4 0
0.45119 0.4 0
0.221726 0.6 0
0.443452 0.6 0
0 0.6 0
0.221726 0.6 0
0 0.8 0
0.217857 0.8 0
0.221726 0.6 0
0.443452 0.6 0
0.217857 0.8 0
0.435714 0.8 0
0 0 0
0.233333 0 0
0 0.2 0
0.229464 0.2 0
0.233333 0 0
0.466667 0 0
0.229464 0.2 0
0.458929 0.2 0
0 0.2 0
0.229464 0.2 0
0 0.4 0
0.225595 0.4 0
0.229464 0.2 0
0.458929 0.2 0
0.225595 0.4 0
0.45119 0.4 0
0.466667 0 0
0.7 0 0
0.458929 0.2 0
0.688393 0.2 0
0.7 0 0
0.933333 0 0
0.688393 0.2 0
0.917857 0.2 0
0.458929 0.2 0
0.688393 0.2 0
0.45119 0.4 0
0.676786 0.4 0
0.688393 0.2 0
0.917857 0.2 0
0.676786 0.4 0
0.902381 0.4 0
0.483333 23.6 0
0.725 23.6 0
0.475 23.8 0
0.7125 23.8 0
0.725 23.6 0
0.966667 23.6 0
0.7125 23.8 0
0.95 23.8 0
0.475 23.8 0
0.7125 23.8 0
0.466667 24 0
0.7 24 0
0.7125 23.8 0
0.95 23.8 0
0.7 24 0
0.933333 24 0
0 23.6 0
0.241667 23.6 0
0 23.8 0
0.2375 23.8 0
0.241667 23.6 0
0.483333 23.6 0
0.2375 23.8 0
0.475 23.8 0
0 23.8 0
0.2375 23.8 0
0 24 0
0.233333 24 0
0.2375 23.8 0
0.475 23.8 0
0.233333 24 0
0.466667 24 0
0 23.2 0
0.25 23.2 0
0 23.4 0
0.245833 23.4 0
0.25 23.2 0
0.5 23.2 0
0.245833 23.4 0
0.491667 23.4 0
0 23.4 0
0.245833 23.4 0
0 23.6 0
0.241667 23.6 0
0.245833 23.4 0
0.491667 23.4 0
0.241667 23.6 0
0.483333 23.6 0
0.5 23.2 0
0.75 23.2 0
0.491667 23.4 0
0.7375 23.4 0
0.75 23.2 0
1 23.2 0
0.7375 23.4 0
0.983333 23.4 0
0.491667 23.4 0
0.7375 23.4 0
0.483333 23.6 0
0.725 23.6 0
0.7375 23.4 0
0.983333 23.4 0
0.725 23.6 0
0.966667 23.6 0
1.35357 0.4 0
1.57917 0.4 0
1.33036 0.6 0
1.55208 0.6 0
1.57917 0.4 0
1.80476 0.4 0
1.55208 0.6 0
1.77381 0.6 0
1.33036 0.6 0
1.55208 0.6 0
1.30714 0.8 0
1.525 0.8 0
1.55208 0.6 0
1.77381 0.6 0
1.525 0.8 0
1.74286 0.8 0
0.902381 0.4 0
1.12798 0.4 0
0.886905 0.6 0
1.10863 0.6 0
1.12798 0.4 0
1.35357 0.4 0
1.10863 0.6 0
1.33036 0.6 0
0.886905 0.6 0
1.10863 0.6 0
0.871429 0.8 0
1.08929 0.8 0
1.10863 0.6 0
1.33036 0.6 0
1.08929 0.8 0
1.30714 0.8 0
0.933333 0 0
1.16667 0 0
0.917857 0.2 0
1.14732 0.2 0
1.16667 0 0
1.4 0 0
1.14732 0.2 0
1.37679 0.2 0
0.917857 0.2 0
1.14732 0.2 0
0.902381 0.4 0
1.12798 0.4 0
1.14732 0.2 0
1.37679 0.2 0
1.12798 0.4 0
1.35357 0.4 0
1.4 0 0
1.63333 0 0
1.37679 0.2 0
1.60625 0.2 0
1.63333 0 0
1.86667 0 0
1.60625 0.2 0
1.83571 0.2 0
1.37679 0.2 0
1.60625 0.2 0
1.35357 0.4 0
1.57917 0.4 0
1.60625 0.2 0
1.83571 0.2 0
1.57917 0.4 0
1.80476 0.4 0
1.45 23.6 0
1.69167 23.6 0
1.425 23.8 0
1.6625 23.8 0
1.69167 23.6 0
1.93333 23.6 0
1.6625 23.8 0
1.9 23.8 0
1.425 23.8 0
1.6625 23.8 0
1.4 24 0
1.63333 24 0
1.6625 23.8 0
1.9 23.8 0
1.63333 24 0
1.86667 24 0
0.966667 23.6 0
1.20833 23.6 0
0.95 23.8 0
1.1875 23.8 0
1.20833 23.6 0
1.45 23.6 0
1.1875 23.8 0
1.425 23.8 0
0.95 23.8 0
1.1875 23.8 0
0.933333 24 0
1.16667 24 0
1.1875 23.8 0
1.425 23.8 0
1.16667 24 0
1.4 24 0
1 23.2 0
1.25 23.2 0
0.983333 23.4 0
1.22917 23.4 0
1.25 23.2 0
1.5 23.2 0
1.22917 23.4 0
1.475 23.4 0
0.983333 23.4 0
1.22917 23.4 0
0.966667 23.6 0
1.20833 23.6 0
1.22917 23.4 0
1.475 23.4 0
1.20833 23.6 0
1.45 23.6 0
1.5 23.2 0
1.75 23.2 0
1.475 23.4 0
1.72083 23.4 0
1.75 23.2 0
2 23.2 0
1.72083 23.4 0
1.96667 23.4 0
1.475 23.4 0
1.72083 23.4 0
1.45 23.6 0
1.69167 23.6 0
1.72083 23.4 0
1.96667 23.4 0
1.69167 23.6 0
1.93333 23.6 0
2.25595 0.4 0
2.48155 0.4 0
2.21726 0.6 0
2.43899 0.6 0
2.48155 0.4 0
2.70714 0.4 0
2.43899 0.6 0
2.66071 0.6 0
2.21726 0.6 0
2.43899 0.6 0
2.17857 0.8 0
2.39643 0.8 0
2.43899 0.6 0
2.66071 0.6 0
2.39643 0.8 0
2.61429 0.8 0
1.80476 0.4 0
2.03036 0.4 0
1.77381 0.6 0
1.99554 0.6 0
2.03036 0.4 0
2.25595 0.4 0
1.99554 0.6 0
2.21726 0.6 0
1.77381 0.6 0
1.99554 0.6 0
1.74286 0.8 0
1.96071 0.8 0
1.99554 0.6 0
2.21726 0.6 0
1.96071 0.8 0
2.17857 0.8 0
1.86667 0 0
2.1 0 0
1.83571 0.2 0
2.06518 0.2 0
2.1 0 0
2.33333 0 0
2.06518 0.2 0
2.29464 0.2 0
1.83571 0.2 0
2.06518 0.2 0
1.80476 0.4 0
2.03036 0.4 0
2.06518 0.2 0
2.29464 0.2 0
2.03036 0.4 0
2.25595 0.4 0
2.33333 0 0
2.56667 0 0
2.29464 0.2 0
2.52411 0.2 0
2.56667 0 0
2.8 0 0
2.52411 0.2 0
2.75357 0.2 0
2.29464 0.2 0
2.52411 0.2 0
2.25595 0.4 0
2.48155 0.4 0
2.52411 0.2 0
2.75357 0.2 0
2.48155 0.4 0
2.70714 0.4 0
2.41667 23.6 0
2.65833 23.6 0
2.375 23.8 0
2.6125 23.8 0
2.65833 23.6 0
2.9 23.6 0
2.6125 23.8 0
2.85 23.8 0
2.375 23.8 0
2.6125 23.8 0
2.33333 24 0
2.56667 24 0
2.6125 23.8 0
2.85 23.8 0
2.56667 24 0
2.8 24 0
1.93333 23.6 0
2.175 23.6 0
1.9 23.8 0
2.1375 23.8 0
2.175 23.6 0
2.41667 23.6 0
2.1375 23.8 0
2.375 23.8 0
1.9 23.8 0
2.1375 23.8 0
1.86667 24 0
2.1 24 0
2.1375 23.8 0
2.375 23.8 0
2.1 24 0
2.33333 24 0
2 23.2 0
2.25 23.2 0
1.96667 23.4 0
2.2125 23.4 0
2.25 23.2 0
2.5 23.2 0
2.2125 23.4 0
2.45833 23.4 0
1.96667 23.4 0
2.2125 23.4 0
1.93333 23.6 0
2.175 23.6 0
2.2125 23.4 0
2.45833 23.4 0
2.175 23.6 0
2.41667 23.6 0
2.5 23.2 0
2.75 23.2 0
2.45833 23.4 0
2.70417 23.4 0
2.75 23.2 0
3 23.2 0
2.70417 23.4 0
2.95 23.4 0
2.45833 23.4 0
2.70417 23.4 0
2.41667 23.6 0
2.65833 23.6 0
2.70417 23.4 0
2.95 23.4 0
2.65833 23.6 0
2.9 23.6 0
3.15833 0.4 0
3.38393 0.4 0
3.10417 0.6 0
3.32589 0.6 0
3.38393 0.4 0
3.60952 0.4 0
3.32589 0.6 0
3.54762 0.6 0
3.10417 0.6 0
3.32589 0.6 0
3.05 0.8 0
3.26786 0.8 0
3.32589 0.6 0
3.54762 0.6 0
3.26786 0.8 0
3.48571 0.8 0
2.70714 0.4 0
2.93274 0.4 0
2.66071 0.6 0
2.88244 0.6 0
2.93274 0.4 0
3.15833 0.4 0
2.88244 0.6 0
3.10417 0.6 0
2.66071 0.6 0
2.88244 0.6 0
2.61429 0.8 0
2.83214 0.8 0
2.88244 0.6 0
3.10417 0.6 0
2.83214 0.8 0
3.05 0.8 0
2.8 0 0
3.03333 0 0
2.75357 0.2 0
2.98304 0.2 0
3.03333 0 0
3.26667 0 0
2.98304 0.2 0
3.2125 0.2 0
2.75357 0.2 0
2.98304 0.2 0
2.70714 0.4 0
2.93274 0.4 0
2.98304 0.2 0
3.2125 0.2 0
2.93274 0.4 0
3.15833 0.4 0
3.26667 0 0
3.5 0 0
3.2125 0.2 0
3.44196 0.2 0
3.5 0 0
3.73333 0 0
3.44196 0.2 0
3.67143 0.2 0
3.2125 0.2 0
3.44196 0.2 0
3.15833 0.4 0
3.38393 0.4 0
3.44196 0.2 0
3.67143 0.2 0
3.38393 0.4 0
3.60952 0.4 0
3.38333 23.6 0
3.625 23.6 0
3.325 23.8 0
3.5625 23.8 0
3.625 23.6 0
3.86667 23.6 0
3.5625 23.8 0
3.8 23.8 0
3.325 23.8 0
3.5625 23.8 0
3.26667 24 0
3.5 24 0
3.5625 23.8 0
3.8 23.8 0
3.5 24 0
3.73333 24 0
2.9 23.6 0
3.14167 23.6 0
2.85 23.8 0
3.0875 23.8 0
3.14167 23.6 0
3.38333 23.6 0
3.0875 23.8 0
3.325 23.8 0
2.85 23.8 0
3.0875 23.8 0
2.8 24 0
3.03333 24 0
3.0875 23.8 0
3.325 23.8 0
3.03333 24 0
3.26667 24 0
3 23.2 0
3.25 23.2 0
2.95 23.4 0
3.19583 23.4 0
3.25 23.2 0
3.5 23.2 0
3.19583 23.4 0
3.44167 23.4 0
2.95 23.4 0
3.19583 23.4 0
2.9 23.6 0
3.14167 23.6 0
3.19583 23.4 0
3.44167 23.4 0
3.14167 23.6 0
3.38333 23.6 0
3.5 23.2 0
3.75 23.2 0
3.44167 23.4 0
3.6875 23.4 0
3.75 23.2 0
4 23.2 0
3.6875 23.4 0
3.93333 23.4 0
3.44167 23.4 0
3.6875 23.4 0
3.38333 23.6 0
3.625 23.6 0
3.6875 23.4 0
3.93333 23.4 0
3.625 23.6 0
3.86667 23.6 0
4.06071 0.400002 0
4.28629 0.40001 0
3.99107 0.600001 0
4.21279 0.600005 0
4.28629 0.40001 0
4.51187 0.400017 0
4.21279 0.600005 0
4.43451 0.600008 0
3.99107 0.600001 0
4.21279 0.600005 0
3.92143 0.8 0
4.13929 0.8 0
4.21279 0.600005 0
4.43451 0.600008 0
4.13929 0.8 0
4.35714 0.8 0
3.60952 0.4 0
3.83512 0.400001 0
3.54762 0.6 0
3.76934 0.600001 0
3.83512 0.400001 0
4.06071 0.400002 0
3.76934 0.600001 0
3.99107 0.600001 0
3.54762 0.6 0
3.76934 0.600001 0
3.48571 0.8 0
3.70357 0.8 0
3.76934 0.600001 0
3.99107 0.600001 0
3.70357 0.8 0
3.92143 0.8 0
3.73333 0 0
3.96667 0 0
3.67143 0.2 0
3.90089 0.200001 0
3.96667 0 0
4.2 0 0
3.90089 0.200001 0
4.13035 0.200001 0
3.67143 0.2 0
3.90089 0.200001 0
3.60952 0.4 0
3.83512 0.400001 0
3.90089 0.200001 0
4.13035 0.200001 0
3.83512 0.400001 0
4.06071 0.400002 0
4.2 0 0
4.43333 0 0
4.13035 0.200001 0
4.35981 0.200005 0
4.43333 0 0
4.66667 0 0
4.35981 0.200005 0
4.58927 0.200008 0
4.13035 0.200001 0
4.35981 0.200005 0
4.06071 0.400002 0
4.28629 0.40001 0
4.35981 0.200005 0
4.58927 0.200008 0
4.28629 0.40001 0
4.51187 0.400017 0
4.35 23.6 0
4.59167 23.6 0
4.275 23.8 0
4.5125 23.8 0
4.59167 23.6 0
4.83333 23.6 0
4.5125 23.8 0
4.75 23.8 0
4.275 23.8 0
4.5125 23.8 0
4.2 24 0
4.43333 24 0
4.5125 23.8 0
4.75 23.8 0
4.43333 24 0
4.66667 24 0
3.86667 23.6 0
4.10833 23.6 0
3.8 23.8 0
4.0375 23.8 0
4.10833 23.6 0
4.35 23.6 0
4.0375 23.8 0
4.275 23.8 0
3.8 23.8 0
4.0375 23.8 0
3.73333 24 0
3.96667 24 0
4.0375 23.8 0
4.275 23.8 0
3.96667 24 0
4.2 24 0
4 23.2 0
4.25 23.2 0
3.93333 23.4 0
4.17917 23.4 0
4.25 23.2 0
4.5 23.2 0
4.17917 23.4 0
4.425 23.4 0
3.93333 23.4 0
4.17917 23.4 0
3.86667 23.6 0
4.10833 23.6 0
4.17917 23.4 0
4.425 23.4 0
4.10833 23.6 0
4.35 23.6 0
4.5 23.2 0
4.75 23.2 0
4.425 23.4 0
4.67083 23.4 0
4.75 23.2 0
5 23.2 0
4.67083 23.4 0
4.91667 23.4 0
4.425 23.4 0
4.67083 23.4 0
4.35 23.6 0
4.59167 23.6 0
4.67083 23.4 0
4.91667 23.4 0
4.59167 23.6 0
4.83333 23.6 0
4.96274 0.40018 0
5.18737 0.400684 0
4.8778 0.60009 0
5.09904 0.600342 0
5.18737 0.400684 0
5.412 0.401188 0
5.09904 0.600342 0
5.32029 0.600594 0
4.8778 0.60009 0
5.09904 0.600342 0
4.79286 0.8 0
5.01071 0.8 0
5.09904 0.600342 0
5.32029 0.600594 0
5.01071 0.8 0
5.22857 0.8 0
4.51187 0.400017 0
4.7373 0.400098 0
4.43451 0.600008 0
4.65615 0.600049 0
4.7373 0.400098 0
4.96274 0.40018 0
4.65615 0.600049 0
4.8778 0.60009 0
4.43451 0.600008 0
4.65615 0.600049 0
4.35714 0.8 0
4.575 0.8 0
4.65615 0.600049 0
4.8778 0.60009 0
4.575 0.8 0
4.79286 0.8 0
4.66667 0 0
4.9 0 0
4.58927 0.200008 0
4.81865 0.200049 0
4.9 0 0
5.13333 0 0
4.81865 0.200049 0
5.04804 0.20009 0
4.58927 0.200008 0
4.81865 0.200049 0
4.51187 0.400017 0
4.7373 0.400098 0
4.81865 0.200049 0
5.04804 0.20009 0
4.7373 0.400098 0
4.96274 0.40018 0
5.13333 0 0
5.36667 0 0
5.04804 0.20009 0
5.27702 0.200342 0
5.36667 0 0
5.6 0 0
5.27702 0.200342 0
5.506 0.200594 0
5.04804 0.20009 0
5.27702 0.200342 0
4.96274 0.40018 0
5.18737 0.400684 0
5.27702 0.200342 0
[...]
POINT_DATA 18144
SCALARS solution double 1
LOOKUP_TABLE default
8.56186 8.42109 8.56947 8.43023 8.42109 8.25913 8.43023 8.2745 8.56947 8.43023 8.59263 8.45291 8.43023 8.2745 8.45291 8.30051 8.73652 8.67125 8.7894 8.69062 8.67125 8.56186 8.69062 8.56947 8.7894 8.69062 8.89252 8.72598 8.69062 8.56947 8.72598 8.59263 8.80068 8.75731 8.72618 8.68877 8.75731 8.62121 8.68877 8.57828 8.72618 8.68877 8.73652 8.67125 8.68877 8.57828 8.67125 8.56186 8.62121 8.44917 8.57828 8.42767 8.44917 8.25826 8.42767 8.25423 8.57828 8.42767 8.56186 8.42109 8.42767 8.25423 8.42109 8.25913 2.27338 2.26787 2.27119 2.26447 2.26787 2.26019 2.26447 2.25584 2.27119 2.26447 2.27051 2.26256 2.26447 2.25584 2.26256 2.2529 2.27789 2.2767 2.27872 2.27594 2.2767 2.27338 2.27594 2.27119 2.27872 2.27594 2.28092 2.27664 2.27594 2.27119 2.27664 2.27051 2.28009 2.2829 2.27841 2.27897 2.2829 2.28282 2.27897 2.2772 2.27841 2.27897 2.27789 2.2767 2.27897 2.2772 2.2767 2.27338 2.28282 2.27965 2.2772 2.27287 2.27965 2.27358 2.27287 2.26607 2.2772 2.27287 2.27338 2.26787 2.27287 2.26607 2.26787 2.26019 7.8957 7.702 7.92585 7.73903 7.702 7.50397 7.73903 7.54726 7.92585 7.73903 7.96142 7.77951 7.73903 7.54726 7.77951 7.59244 8.25913 8.0825 8.2745 8.1053 8.0825 7.8957 8.1053 7.92585 8.2745 8.1053 8.30051 8.13592 8.1053 7.92585 8.13592 7.96142 8.25826 8.0561 8.25423 8.06664 8.0561 7.84703 8.06664 7.86992 8.25423 8.06664 8.25913 8.0825 8.06664 7.86992 8.0825 7.8957 7.84703 7.63401 7.86992 7.66743 7.63401 7.4192 7.66743 7.46164 7.86992 7.66743 7.8957 7.702 7.66743 7.46164 7.702 7.50397 2.23899 2.22585 2.2334 2.21992 2.22585 2.21129 2.21992 2.20518 2.2334 2.21992 2.22899 2.21506 2.21992 2.20518 2.21506 2.2 2.26019 2.25051 2.25584 2.24543 2.25051 2.23899 2.24543 2.2334 2.25584 2.24543 2.2529 2.24166 2.24543 2.2334 2.24166 2.22899 2.27358 2.26492 2.26607 2.25698 2.26492 2.25397 2.25698 2.24584 2.26607 2.25698 2.26019 2.25051 2.25698 2.24584 2.25051 2.23899 2.25397 2.24103 2.24584 2.23288 2.24103 2.22639 2.23288 2.21836 2.24584 2.23288 2.23899 2.22585 2.23288 2.21836 2.22585 2.21129 7.10239 6.90167 7.15647 6.96035 6.90167 6.70241 6.96035 6.76521 7.15647 6.96035 7.21022 7.01794 6.96035 6.76521 7.01794 6.82634 7.50397 7.30357 7.54726 7.35254 7.30357 7.10239 7.35254 7.15647 7.54726 7.35254 7.59244 7.40215 7.35254 7.15647 7.40215 7.21022 7.4192 7.20423 7.46164 7.25444 7.20423 6.99039 7.25444 7.04728 7.46164 7.25444 7.50397 7.30357 7.25444 7.04728 7.30357 7.10239 6.99039 6.77866 7.04728 6.84132 6.77866 6.56982 6.84132 6.63746 7.04728 6.84132 7.10239 6.90167 6.84132 6.63746 6.90167 6.70241 2.17861 2.1608 2.17249 2.15482 2.1608 2.1422 2.15482 2.13643 2.17249 2.15482 2.16708 2.14945 2.15482 2.13643 2.14945 2.13117 2.21129 2.19548 2.20518 2.18931 2.19548 2.17861 2.18931 2.17249 2.20518 2.18931 2.2 2.18396 2.18931 2.17249 2.18396 2.16708 2.22639 2.21029 2.21836 2.20248 2.21029 2.19296 2.20248 2.18544 2.21836 2.20248 2.21129 2.19548 2.20248 2.18544 2.19548 2.17861 2.19296 2.17458 2.18544 2.1674 2.17458 2.15531 2.1674 2.1485 2.18544 2.1674 2.17861 2.1608 2.1674 2.1485 2.1608 2.1422 6.31116 6.12023 6.38095 6.19297 6.12023 5.93294 6.19297 6.00831 6.38095 6.19297 6.44832 6.26307 6.19297 6.00831 6.26307 6.08089 6.70241 6.50537 6.76521 6.57186 6.50537 6.31116 6.57186 6.38095 6.76521 6.57186 6.82634 6.63625 6.57186 6.38095 6.63625 6.44832 6.56982 6.36445 6.63746 6.43637 6.36445 6.16299 6.43637 6.23862 6.63746 6.43637 6.70241 6.50537 6.43637 6.23862 6.50537 6.31116 6.16299 5.96576 6.23862 6.04458 5.96576 5.773 6.04458 5.85457 6.23862 6.04458 6.31116 6.12023 6.04458 5.85457 6.12023 5.93294 2.10303 2.08262 2.09783 2.07777 2.08262 2.06174 2.07777 2.05729 2.09783 2.07777 2.09301 2.07326 2.07777 2.05729 2.07326 2.05312 2.1422 2.12292 2.13643 2.1174 2.12292 2.10303 2.1174 2.09783 2.13643 2.1174 2.13117 2.11234 2.1174 2.09783 2.11234 2.09301 2.15531 2.13526 2.1485 2.12888 2.13526 2.11455 2.12888 2.10861 2.1485 2.12888 2.1422 2.12292 2.12888 2.10861 2.12292 2.10303 2.11455 2.09326 2.10861 2.08778 2.09326 2.07144 2.08778 2.06646 2.10861 2.08778 2.10303 2.08262 2.08778 2.06646 2.08262 2.06174 5.57025 5.39516 5.65002 5.47676 5.39516 5.22437 5.47676 5.30758 5.65002 5.47676 5.72688 5.55543 5.47676 5.30758 5.55543 5.38787 5.93294 5.74955 6.00831 5.82726 5.74955 5.57025 5.82726 5.65002 6.00831 5.82726 6.08089 5.90208 5.82726 5.65002 5.90208 5.72688 5.773 5.58487 5.85457 5.66881 5.58487 5.40146 5.66881 5.48742 5.85457 5.66881 5.93294 5.74955 5.66881 5.48742 5.74955 5.57025 5.40146 5.22282 5.48742 5.31053 5.22282 5.04895 5.31053 5.13816 5.48742 5.31053 5.57025 5.39516 5.31053 5.13816 5.39516 5.22437 2.01882 1.99686 2.01527 1.99381 1.99686 1.97462 1.99381 1.97211 2.01527 1.99381 2.01189 1.99088 1.99381 1.97211 1.99088 1.96967 2.06174 2.04047 2.05729 2.03644 2.04047 2.01882 2.03644 2.01527 2.05729 2.03644 2.05312 2.03265 2.03644 2.01527 2.03265 2.01189 2.07144 2.04915 2.06646 2.0447 2.04915 2.02643 2.0447 2.02255 2.06646 2.0447 2.06174 2.04047 2.0447 2.02255 2.04047 2.01882 2.02643 2.00329 2.02255 2.00002 2.00329 1.97977 2.00002 1.97717 2.02255 2.00002 2.01882 1.99686 2.00002 1.97717 1.99686 1.97462 4.8961 4.7392 4.98185 4.82569 4.7392 4.58679 4.82569 4.67398 4.98185 4.82569 5.06471 4.90924 4.82569 4.67398 4.90924 4.75798 5.22437 5.05804 5.30758 5.1426 5.05804 4.8961 5.1426 4.98185 5.30758 5.1426 5.38787 5.22428 5.1426 4.98185 5.22428 5.06471 5.04895 4.8798 5.13816 4.97039 4.8798 4.71527 4.97039 4.80713 5.13816 4.97039 5.22437 5.05804 4.97039 4.80713 5.05804 4.8961 4.71527 4.55516 4.80713 4.64865 4.55516 4.39911 4.64865 4.49452 4.80713 4.64865 4.8961 4.7392 4.64865 4.49452 4.7392 4.58679 1.92945 1.90662 1.92817 1.90603 1.90662 1.8837 1.90603 1.88386 1.92817 1.90603 1.9268 1.90525 1.90603 1.88386 1.90525 1.8837 1.97462 1.95213 1.97211 1.95022 1.95213 1.92945 1.95022 1.92817 1.97211 1.95022 1.96967 1.94829 1.95022 1.92817 1.94829 1.9268 1.97977 1.95588 1.97717 1.95402 1.95588 1.93164 1.95402 1.93061 1.97717 1.95402 1.97462 1.95213 1.95402 1.93061 1.95213 1.92945 1.93164 1.90708 1.93061 1.90698 1.90708 1.88225 1.90698 1.88318 1.93061 1.90698 1.92945 1.90662 1.90698 1.88318 1.90662 1.8837 3.17779 3.09814 3.21072 3.11189 3.09814 3.02021 3.11189 3.01267 3.21072 3.11189 3.25097 3.13777 3.11189 3.01267 3.13777 2.9847 3.37834 3.27649 3.42394 3.31682 3.27649 3.17779 3.31682 3.21072 3.42394 3.31682 3.46813 3.35903 3.31682 3.21072 3.35903 3.25097 3.30047 3.19762 3.34072 3.23763 3.19762 3.10702 3.23763 3.14215 3.34072 3.23763 3.37834 3.27649 3.23763 3.14215 3.27649 3.17779 3.10702 3.03013 3.14215 3.06215 3.03013 2.96754 3.06215 2.99001 3.14215 3.06215 3.17779 3.09814 3.06215 2.99001 3.09814 3.02021 4.30321 4.19018 4.38927 4.26733 4.19018 4.07831 4.26733 4.15052 4.38927 4.26733 4.46959 4.33543 4.26733 4.15052 4.33543 4.22055 4.58679 4.44274 4.67398 4.5289 4.44274 4.30321 4.5289 4.38927 4.67398 4.5289 4.75798 4.6112 4.5289 4.38927 4.6112 4.46959 4.39911 4.24652 4.49452 4.34638 4.24652 4.09673 4.34638 4.2017 4.49452 4.34638 4.58679 4.44274 4.34638 4.2017 4.44274 4.30321 4.09673 3.94954 4.2017 4.07102 3.94954 3.8059 4.07102 3.94149 4.2017 4.07102 4.30321 4.19018 4.07102 3.94149 4.19018 4.07831 2.77814 2.78974 2.78072 2.79986 2.78974 2.80115 2.79986 2.81813 2.78072 2.79986 2.80198 2.83068 2.79986 2.81813 2.83068 2.85844 2.80251 2.80594 2.78707 2.79347 2.80594 2.80932 2.79347 2.79979 2.78707 2.79347 2.77814 2.78974 2.79347 2.79979 2.78974 2.80115 2.81429 2.80978 2.81224 2.80546 2.80978 2.8209 2.80546 2.81205 2.81224 2.80546 2.80932 2.79979 2.80546 2.81205 2.79979 2.80115 2.8209 2.86115 2.81205 2.84003 2.86115 2.9847 2.84003 2.90582 2.81205 2.84003 2.80115 2.81813 2.84003 2.90582 2.81813 2.85844 1.66238 1.65539 1.6589 1.65224 1.65539 1.65023 1.65224 1.64678 1.6589 1.65224 1.65568 1.64889 1.65224 1.64678 1.64889 1.64294 1.67987 1.66281 1.66879 1.65922 1.66281 1.65619 1.65922 1.65346 1.66879 1.65922 1.66238 1.65539 1.65922 1.65346 1.65539 1.65023 1.65087 1.64778 1.65257 1.64973 1.64778 1.64421 1.64973 1.64638 1.65257 1.64973 1.65619 1.65346 1.64973 1.64638 1.65346 1.65023 1.64421 1.64017 1.64638 1.64266 1.64017 1.63568 1.64266 1.63849 1.64638 1.64266 1.65023 1.64678 1.64266 1.63849 1.64678 1.64294 1.83792 1.81525 1.83974 1.81798 1.81525 1.79289 1.81798 1.79657 1.83974 1.81798 1.84097 1.81995 1.81798 1.79657 1.81995 1.79931 1.8837 1.86077 1.88386 1.86173 1.86077 1.83792 1.86173 1.83974 1.88386 1.86173 1.8837 1.86225 1.86173 1.83974 1.86225 1.84097 1.88225 1.85724 1.88318 1.85929 1.85724 1.83215 1.85929 1.83542 1.88318 1.85929 1.8837 1.86077 1.85929 1.83542 1.86077 1.83792 1.83215 1.80712 1.83542 1.81167 1.80712 1.78229 1.81167 1.78816 1.83542 1.81167 1.83792 1.81525 1.81167 1.78816 1.81525 1.79289 1.71205 1.72224 1.69743 1.70272 1.72224 1.73358 1.70272 1.70919 1.69743 1.70272 1.68351 1.68359 1.70272 1.70919 1.68359 1.67987 1.71205 1.69743 1.70096 1.68654 1.69743 1.68351 1.68654 1.67328 1.70096 1.68654 1.69053 1.67601 1.68654 1.67328 1.67601 1.6621 1.75099 1.73122 1.73662 1.71829 1.73122 1.71205 1.71829 1.70096 1.73662 1.71829 1.72296 1.70615 1.71829 1.70096 1.70615 1.69053 1.75099 1.76619 1.73122 1.74403 1.76619 1.78229 1.74403 1.75778 1.73122 1.74403 1.71205 1.72224 1.74403 1.75778 1.72224 1.73358 2.84587 2.84536 2.86667 2.86616 2.84536 2.84443 2.86616 2.86531 2.86667 2.86616 2.88869 2.88788 2.86616 2.86531 2.88788 2.88674 2.81429 2.81224 2.82764 2.8267 2.81224 2.80932 2.8267 2.82518 2.82764 2.8267 2.84587 2.84536 2.8267 2.82518 2.84536 2.84443 2.80251 2.8214 2.80594 2.82333 2.8214 2.84192 2.82333 2.84323 2.80594 2.82333 2.80932 2.82518 2.82333 2.84323 2.82518 2.84443 2.84192 2.86293 2.84323 2.8642 2.86293 2.88372 2.8642 2.88533 2.84323 2.8642 2.84443 2.86531 2.8642 2.88533 2.86531 2.88674 1.6444 1.6398 1.64356 1.63924 1.6398 1.63477 1.63924 1.63446 1.64356 1.63924 1.64421 1.64017 1.63924 1.63446 1.64017 1.63568 1.65227 1.64857 1.65082 1.64743 1.64857 1.6444 1.64743 1.64356 1.65082 1.64743 1.65087 1.64778 1.64743 1.64356 1.64778 1.64421 1.65902 1.6547 1.65506 1.65104 1.6547 1.64999 1.65104 1.64659 1.65506 1.65104 1.65227 1.64857 1.65104 1.64659 1.64857 1.6444 1.64999 1.6449 1.64659 1.64173 1.6449 1.63944 1.64173 1.63647 1.64659 1.64173 1.6444 1.6398 1.64173 1.63647 1.6398 1.63477 2.93339 2.93123 2.9551 2.95189 2.93123 2.92868 2.95189 2.94823 2.9551 2.95189 2.97582 2.9713 2.95189 2.94823 2.9713 2.96629 2.88869 2.88788 2.91111 2.90975 2.88788 2.88674 2.90975 2.90803 2.91111 2.90975 2.93339 2.93123 2.90975 2.90803 2.93123 2.92868 2.88372 2.90375 2.88533 2.90602 2.90375 2.92257 2.90602 2.92577 2.88533 2.90602 2.88674 2.90803 2.90602 2.92577 2.90803 2.92868 2.92257 2.93977 2.92577 2.94418 2.93977 2.955 2.94418 2.96085 2.92577 2.94418 2.92868 2.94823 2.94418 2.96085 2.94823 2.96629 1.66 1.65455 1.65448 1.64919 1.65455 1.64876 1.64919 1.64356 1.65448 1.64919 1.64999 1.6449 1.64919 1.64356 1.6449 1.63944 1.66989 1.66511 1.664 1.65942 1.66511 1.66 1.65942 1.65448 1.664 1.65942 1.65902 1.6547 1.65942 1.65448 1.6547 1.64999 1.68443 1.67948 1.67667 1.67177 1.67948 1.67417 1.67177 1.66654 1.67667 1.67177 1.66989 1.66511 1.67177 1.66654 1.66511 1.66 1.67417 1.6685 1.66654 1.66096 1.6685 1.66243 1.66096 1.65503 1.66654 1.66096 1.66 1.65455 1.66096 1.65503 1.65455 1.64876 3.5366 3.41388 3.56051 3.44759 3.41388 3.30047 3.44759 3.34072 3.56051 3.44759 3.58052 3.47764 3.44759 3.34072 3.47764 3.37834 3.58052 3.47764 3.61169 3.51745 3.47764 3.37834 3.51745 3.42394 3.61169 3.51745 3.64175 3.55551 3.51745 3.42394 3.55551 3.46813 3.58052 3.61169 3.67325 3.68565 3.61169 3.64175 3.68565 3.6966 3.67325 3.68565 3.76947 3.76157 3.68565 3.6966 3.76157 3.7522 3.5366 3.56051 3.66766 3.67285 3.56051 3.58052 3.67285 3.67325 3.66766 3.67285 3.8059 3.78996 3.67285 3.67325 3.78996 3.76947 2.97844 2.98769 2.96796 2.97544 2.98769 2.99647 2.97544 2.98248 2.96796 2.97544 2.955 2.96085 2.97544 2.98248 2.96085 2.96629 2.99151 3.00446 2.9863 2.99739 3.00446 3.01693 2.99739 3.008 2.9863 2.99739 2.97844 2.98769 2.99739 3.008 2.98769 2.99647 3.0404 3.02772 3.02892 3.01812 3.02772 3.01253 3.01812 3.00476 3.02892 3.01812 3.01693 3.008 3.01812 3.00476 3.008 2.99647 3.01253 2.9951 3.00476 2.98905 2.9951 2.97582 2.98905 2.9713 3.00476 2.98905 2.99647 2.98248 2.98905 2.9713 2.98248 2.96629 1.69337 1.68754 1.68305 1.67729 1.68754 1.68119 1.67729 1.67109 1.68305 1.67729 1.67417 1.6685 1.67729 1.67109 1.6685 1.66243 1.70361 1.69872 1.69333 1.68838 1.69872 1.69337 1.68838 1.68305 1.69333 1.68838 1.68443 1.67948 1.68838 1.68305 1.67948 1.67417 1.72942 1.72467 1.71554 1.71073 1.72467 1.71931 1.71073 1.70539 1.71554 1.71073 1.70361 1.69872 1.71073 1.70539 1.69872 1.69337 1.71931 1.71329 1.70539 1.69947 1.71329 1.70659 1.69947 1.69295 1.70539 1.69947 1.69337 1.68754 1.69947 1.69295 1.68754 1.68119 2.99419 3.01072 2.9941 3.00888 3.01072 3.02681 3.00888 3.02319 2.9941 3.00888 2.99151 3.00446 3.00888 3.02319 3.00446 3.01693 2.9874 3.00715 2.9919 3.0101 3.00715 3.0265 3.0101 3.02787 2.9919 3.0101 2.99419 3.01072 3.0101 3.02787 3.01072 3.02681 3.06403 3.06215 3.04546 3.04522 3.06215 3.05763 3.04522 3.04244 3.04546 3.04522 3.0265 3.02787 3.04522 3.04244 3.02787 3.02681 3.05763 3.05039 3.04244 3.03703 3.05039 3.0404 3.03703 3.02892 3.04244 3.03703 3.02681 3.02319 3.03703 3.02892 3.02319 3.01693 1.75356 1.74725 1.73533 1.72918 1.74725 1.74015 1.72918 1.72229 1.73533 1.72918 1.71931 1.71329 1.72918 1.72229 1.71329 1.70659 1.76384 1.75909 1.74547 1.74075 1.75909 1.75356 1.74075 1.73533 1.74547 1.74075 1.72942 1.72467 1.74075 1.73533 1.72467 1.71931 1.80757 1.80249 1.78458 1.7797 1.80249 1.79657 1.7797 1.774 1.78458 1.7797 1.76384 1.75909 1.7797 1.774 1.75909 1.75356 1.79657 1.78986 1.774 1.7675 1.78986 1.78236 1.7675 1.7602 1.774 1.7675 1.75356 1.74725 1.7675 1.7602 1.74725 1.74015 3.0605 3.03899 3.05543 3.0326 3.03899 3.01714 3.0326 3.00948 3.05543 3.0326 3.04838 3.02435 3.0326 3.00948 3.02435 3.00005 3.06403 3.04546 3.06343 3.04333 3.04546 3.0265 3.04333 3.02287 3.06343 3.04333 3.0605 3.03899 3.04333 3.02287 3.03899 3.01714 2.9874 2.98085 3.00715 3.00205 2.98085 2.97243 3.00205 2.99496 3.00715 3.00205 3.0265 3.02287 3.00205 2.99496 3.02287 3.01714 2.97243 2.96229 2.99496 2.98604 2.96229 2.95058 2.98604 2.97546 2.99496 2.98604 3.01714 3.00948 2.98604 2.97546 3.00948 3.00005 1.84743 1.84027 1.82112 1.81418 1.84027 1.83242 1.81418 1.8065 1.82112 1.81418 1.79657 1.78986 1.81418 1.8065 1.78986 1.78236 1.85951 1.85386 1.83263 1.82728 1.85386 1.84743 1.82728 1.82112 1.83263 1.82728 1.80757 1.80249 1.82728 1.82112 1.80249 1.79657 1.91762 1.91133 1.88793 1.88195 1.91133 1.90438 1.88195 1.87526 1.88793 1.88195 1.85951 1.85386 1.88195 1.87526 1.85386 1.84743 1.90438 1.89682 1.87526 1.86789 1.89682 1.8887 1.86789 1.8599 1.87526 1.86789 1.84743 1.84027 1.86789 1.8599 1.84027 1.83242 2.92299 2.94985 2.93744 2.96335 2.94985 2.97648 2.96335 2.989 2.93744 2.96335 2.95058 2.97546 2.96335 2.989 2.97546 3.00005 2.89056 2.91912 2.90733 2.93507 2.91912 2.94749 2.93507 2.96261 2.90733 2.93507 2.92299 2.94985 2.93507 2.96261 2.94985 2.97648 3.00365 3.01703 2.97566 2.98992 3.01703 3.02903 2.98992 3.00287 2.97566 2.98992 2.94749 2.96261 2.98992 3.00287 2.96261 2.97648 3.02903 3.03953 3.00287 3.01439 3.03953 3.04838 3.01439 3.02435 3.00287 3.01439 2.97648 2.989 3.01439 3.02435 2.989 3.00005 1.96561 1.95772 1.93457 1.92684 1.95772 1.94938 1.92684 1.9186 1.93457 1.92684 1.90438 1.89682 1.92684 1.9186 1.89682 1.8887 1.97988 1.97301 1.94834 1.94175 1.97301 1.96561 1.94175 1.93457 1.94834 1.94175 1.91762 1.91133 1.94175 1.93457 1.91133 1.90438 2.04462 2.03728 2.01202 2.00491 2.03728 2.02951 2.00491 1.99731 2.01202 2.00491 1.97988 1.97301 2.00491 1.99731 1.97301 1.96561 2.02951 2.02136 1.99731 1.98928 2.02136 2.01286 1.98928 1.98086 1.99731 1.98928 1.96561 1.95772 1.98928 1.98086 1.95772 1.94938 2.9732 2.94364 2.95632 2.92605 2.94364 2.91392 2.92605 2.89563 2.95632 2.92605 2.93845 2.9075 2.92605 2.89563 2.9075 2.87643 3.00365 2.97566 2.989 2.96021 2.97566 2.94749 2.96021 2.93123 2.989 2.96021 2.9732 2.94364 2.96021 2.93123 2.94364 2.91392 2.89056 2.87276 2.91912 2.90209 2.87276 2.85401 2.90209 2.88405 2.91912 2.90209 2.94749 2.93123 2.90209 2.88405 2.93123 2.91392 2.85401 2.83437 2.88405 2.86507 2.83437 2.81389 2.86507 2.84522 2.88405 2.86507 2.91392 2.89563 2.86507 2.84522 2.89563 2.87643 2.09481 2.08645 2.06205 2.05379 2.08645 2.07781 2.05379 2.04522 2.06205 2.05379 2.02951 2.02136 2.05379 2.04522 2.02136 2.01286 2.11061 2.10288 2.07753 2.06998 2.10288 2.09481 2.06998 2.06205 2.07753 2.06998 2.04462 2.03728 2.06998 2.06205 2.03728 2.02951 2.17692 2.16887 2.14377 2.13587 2.16887 2.16055 2.13587 2.12768 2.14377 2.13587 2.11061 2.10288 2.13587 2.12768 2.10288 2.09481 2.16055 2.15201 2.12768 2.11922 2.15201 2.14324 2.11922 2.11052 2.12768 2.11922 2.09481 2.08645 2.11922 2.11052 2.08645 2.07781 2.89998 2.8678 2.8795 2.84674 2.8678 2.8355 2.84674 2.81387 2.8795 2.84674 2.85825 2.82493 2.84674 2.81387 2.82493 2.79152 2.93845 2.9075 2.91965 2.88807 2.9075 2.87643 2.88807 2.85637 2.91965 2.88807 2.89998 2.8678 2.88807 2.85637 2.8678 2.8355 2.81389 2.79261 2.84522 2.82455 2.79261 2.77059 2.82455 2.8031 2.84522 2.82455 2.87643 2.85637 2.82455 2.8031 2.85637 2.8355 2.77059 2.74786 2.8031 2.78091 2.74786 2.72443 2.78091 2.75802 2.8031 2.78091 2.8355 2.81387 2.78091 2.75802 2.81387 2.79152 2.226 2.21729 2.19335 2.18472 2.21729 2.20841 2.18472 2.1759 2.19335 2.18472 2.16055 2.15201 2.18472 2.1759 2.15201 2.14324 2.24285 2.23453 2.20997 2.20178 2.23453 2.226 2.20178 2.19335 2.20997 2.20178 2.17692 2.16887 2.20178 2.19335 2.16887 2.16055 2.3079 2.29934 2.27551 2.26707 2.29934 2.29062 2.26707 2.25844 2.27551 2.26707 2.24285 2.23453 2.26707 2.25844 2.23453 2.226 2.29062 2.28175 2.25844 2.24965 2.28175 2.27274 2.24965 2.2407 2.25844 2.24965 2.226 2.21729 2.24965 2.2407 2.21729 2.20841 2.67564 2.71023 2.70035 2.73445 2.71023 2.74475 2.73445 2.76847 2.70035 2.73445 2.72443 2.75802 2.73445 2.76847 2.75802 2.79152 2.62438 2.65992 2.65031 2.68538 2.65992 2.69541 2.68538 2.72039 2.65031 2.68538 2.67564 2.71023 2.68538 2.72039 2.71023 2.74475 2.76621 2.79021 2.73084 2.75533 2.79021 2.81357 2.75533 2.7792 2.73084 2.75533 2.69541 2.72039 2.75533 2.7792 2.72039 2.74475 2.81357 2.83626 2.7792 2.8024 2.83626 2.85825 2.8024 2.82493 2.7792 2.8024 2.74475 2.76847 2.8024 2.82493 2.76847 2.79152 2.35401 2.34498 2.32249 2.31354 2.34498 2.33583 2.31354 2.30446 2.32249 2.31354 2.29062 2.28175 2.31354 2.30446 2.28175 2.27274 2.37168 2.36291 2.33997 2.3313 2.36291 2.35401 2.3313 2.32249 2.33997 2.3313 2.3079 2.29934 2.3313 2.32249 2.29934 2.29062 2.43394 2.42496 2.40302 2.39414 2.42496 2.41587 2.39414 2.38514 2.40302 2.39414 2.37168 2.36291 2.39414 2.38514 2.36291 2.35401 2.41587 2.40667 2.38514 2.37603 2.40667 2.39738 2.37603 2.36682 2.38514 2.37603 2.35401 2.34498 2.37603 2.36682 2.34498 2.33583 2.5708 2.60725 2.59787 2.63387 2.60725 2.64366 2.63387 2.66982 2.59787 2.63387 2.62438 2.65992 2.63387 2.66982 2.65992 2.69541 2.51502 2.55234 2.54318 2.58006 2.55234 2.58963 2.58006 2.61692 2.54318 2.58006 2.5708 2.60725 2.58006 2.61692 2.60725 2.64366 2.66412 2.69051 2.62689 2.65374 2.69051 2.71634 2.65374 2.68002 2.62689 2.65374 2.58963 2.61692 2.65374 2.68002 2.61692 2.64366 2.71634 2.74158 2.68002 2.70573 2.74158 2.76621 2.70573 2.73084 2.68002 2.70573 2.64366 2.66982 2.70573 2.73084 2.66982 2.69541 2.47598 2.46662 2.44616 2.43688 2.46662 2.45717 2.43688 2.42751 2.44616 2.43688 2.41587 2.40667 2.43688 2.42751 2.40667 2.39738 2.49445 2.48526 2.46442 2.45534 2.48526 2.47598 2.45534 2.44616 2.46442 2.45534 2.43394 2.42496 2.45534 2.44616 2.42496 2.41587 2.55306 2.54367 2.524 2.51471 2.54367 2.53419 2.51471 2.50534 2.524 2.51471 2.49445 2.48526 2.51471 2.50534 2.48526 2.47598 2.53419 2.52464 2.50534 2.49588 2.52464 2.51502 2.49588 2.48635 2.50534 2.49588 2.47598 2.46662 2.49588 2.48635 2.46662 2.45717 3.94186 3.88831 4.02337 3.96149 3.88831 3.83246 3.96149 3.89543 4.02337 3.96149 4.11295 4.04555 3.96149 3.89543 4.04555 3.96638 4.07831 4.01139 4.15052 4.08921 4.01139 3.94186 4.08921 4.02337 4.15052 4.08921 4.22055 4.17309 4.08921 4.02337 4.17309 4.11295 3.8059 3.78996 3.941