# vtk DataFile Version 3.0
#This file was generated by the deal.II library on 2020/5/23 at 17:06:23
ASCII
DATASET UNSTRUCTURED_GRID

POINTS 11248 double
0 0 0
0.0625 0 0
0 0.0625 0
0.0625 0.0625 0
0.0625 0 0
0.125 0 0
0.0625 0.0625 0
0.125 0.0625 0
0.125 0 0
0.1875 0 0
0.125 0.0625 0
0.1875 0.0625 0
0.1875 0 0
0.25 0 0
0.1875 0.0625 0
0.25 0.0625 0
0.25 0 0
0.3125 0 0
0.25 0.0625 0
0.3125 0.0625 0
0.3125 0 0
0.375 0 0
0.3125 0.0625 0
0.375 0.0625 0
0.375 0 0
0.4375 0 0
0.375 0.0625 0
0.4375 0.0625 0
0.4375 0 0
0.5 0 0
0.4375 0.0625 0
0.5 0.0625 0
0.5 0 0
0.5625 0 0
0.5 0.0625 0
0.5625 0.0625 0
0.5625 0 0
0.625 0 0
0.5625 0.0625 0
0.625 0.0625 0
0.625 0 0
0.6875 0 0
0.625 0.0625 0
0.6875 0.0625 0
0.6875 0 0
0.75 0 0
0.6875 0.0625 0
0.75 0.0625 0
0.75 0 0
0.8125 0 0
0.75 0.0625 0
0.8125 0.0625 0
0.8125 0 0
0.875 0 0
0.8125 0.0625 0
0.875 0.0625 0
0.875 0 0
0.9375 0 0
0.875 0.0625 0
0.9375 0.0625 0
0.9375 0 0
1 0 0
0.9375 0.0625 0
1 0.0625 0
0 0.0625 0
0.0625 0.0625 0
0 0.125 0
0.0625 0.125 0
0.0625 0.0625 0
0.125 0.0625 0
0.0625 0.125 0
0.125 0.125 0
0.125 0.0625 0
0.1875 0.0625 0
0.125 0.125 0
0.1875 0.125 0
0.1875 0.0625 0
0.25 0.0625 0
0.1875 0.125 0
0.25 0.125 0
0.25 0.0625 0
0.3125 0.0625 0
0.25 0.125 0
0.3125 0.125 0
0.3125 0.0625 0
0.375 0.0625 0
0.3125 0.125 0
0.375 0.125 0
0.375 0.0625 0
0.4375 0.0625 0
0.375 0.125 0
0.4375 0.125 0
0.4375 0.0625 0
0.5 0.0625 0
0.4375 0.125 0
0.5 0.125 0
0.5 0.0625 0
0.5625 0.0625 0
0.5 0.125 0
0.5625 0.125 0
0.5625 0.0625 0
0.625 0.0625 0
0.5625 0.125 0
0.625 0.125 0
0.625 0.0625 0
0.6875 0.0625 0
0.625 0.125 0
0.6875 0.125 0
0.6875 0.0625 0
0.75 0.0625 0
0.6875 0.125 0
0.75 0.125 0
0.75 0.0625 0
0.8125 0.0625 0
0.75 0.125 0
0.8125 0.125 0
0.8125 0.0625 0
0.875 0.0625 0
0.8125 0.125 0
0.875 0.125 0
0.875 0.0625 0
0.9375 0.0625 0
0.875 0.125 0
0.9375 0.125 0
0.9375 0.0625 0
1 0.0625 0
0.9375 0.125 0
1 0.125 0
0 0.125 0
0.0625 0.125 0
0 0.1875 0
0.0625 0.1875 0
0.0625 0.125 0
0.125 0.125 0
0.0625 0.1875 0
0.125 0.1875 0
0.125 0.125 0
0.1875 0.125 0
0.125 0.1875 0
0.1875 0.1875 0
0.1875 0.125 0
0.25 0.125 0
0.1875 0.1875 0
0.25 0.1875 0
0.25 0.125 0
0.3125 0.125 0
0.25 0.1875 0
0.3125 0.1875 0
0.3125 0.125 0
0.375 0.125 0
0.3125 0.1875 0
0.375 0.1875 0
0.375 0.125 0
0.4375 0.125 0
0.375 0.1875 0
0.4375 0.1875 0
0.4375 0.125 0
0.5 0.125 0
0.4375 0.1875 0
0.5 0.1875 0
0.5 0.125 0
0.5625 0.125 0
0.5 0.1875 0
0.5625 0.1875 0
0.5625 0.125 0
0.625 0.125 0
0.5625 0.1875 0
0.625 0.1875 0
0.625 0.125 0
0.6875 0.125 0
0.625 0.1875 0
0.6875 0.1875 0
0.6875 0.125 0
0.75 0.125 0
0.6875 0.1875 0
0.75 0.1875 0
0.75 0.125 0
0.8125 0.125 0
0.75 0.1875 0
0.8125 0.1875 0
0.8125 0.125 0
0.875 0.125 0
0.8125 0.1875 0
0.875 0.1875 0
0.875 0.125 0
0.9375 0.125 0
0.875 0.1875 0
0.9375 0.1875 0
0.9375 0.125 0
1 0.125 0
0.9375 0.1875 0
1 0.1875 0
0 0.1875 0
0.0625 0.1875 0
0 0.25 0
0.0625 0.25 0
0.0625 0.1875 0
0.125 0.1875 0
0.0625 0.25 0
0.125 0.25 0
0.125 0.1875 0
0.1875 0.1875 0
0.125 0.25 0
0.1875 0.25 0
0.1875 0.1875 0
0.25 0.1875 0
0.1875 0.25 0
0.25 0.25 0
0.25 0.1875 0
0.3125 0.1875 0
0.25 0.25 0
0.3125 0.25 0
0.6875 0.1875 0
0.75 0.1875 0
0.6875 0.25 0
0.75 0.25 0
0.75 0.1875 0
0.8125 0.1875 0
0.75 0.25 0
0.8125 0.25 0
0.8125 0.1875 0
0.875 0.1875 0
0.8125 0.25 0
0.875 0.25 0
0.875 0.1875 0
0.9375 0.1875 0
0.875 0.25 0
0.9375 0.25 0
0.9375 0.1875 0
1 0.1875 0
0.9375 0.25 0
1 0.25 0
0 0.25 0
0.0625 0.25 0
0 0.3125 0
0.0625 0.3125 0
0.0625 0.25 0
0.125 0.25 0
0.0625 0.3125 0
0.125 0.3125 0
0.125 0.25 0
0.1875 0.25 0
0.125 0.3125 0
0.1875 0.3125 0
0.1875 0.25 0
0.25 0.25 0
0.1875 0.3125 0
0.25 0.3125 0
0.75 0.25 0
0.8125 0.25 0
0.75 0.3125 0
0.8125 0.3125 0
0.8125 0.25 0
0.875 0.25 0
0.8125 0.3125 0
0.875 0.3125 0
0.875 0.25 0
0.9375 0.25 0
0.875 0.3125 0
0.9375 0.3125 0
0.9375 0.25 0
1 0.25 0
0.9375 0.3125 0
1 0.3125 0
0 0.3125 0
0.0625 0.3125 0
0 0.375 0
0.0625 0.375 0
0.0625 0.3125 0
0.125 0.3125 0
0.0625 0.375 0
0.125 0.375 0
0.125 0.3125 0
0.1875 0.3125 0
0.125 0.375 0
0.1875 0.375 0
0.8125 0.3125 0
0.875 0.3125 0
0.8125 0.375 0
0.875 0.375 0
0.875 0.3125 0
0.9375 0.3125 0
0.875 0.375 0
0.9375 0.375 0
0.9375 0.3125 0
1 0.3125 0
0.9375 0.375 0
1 0.375 0
0 0.375 0
0.0625 0.375 0
0 0.4375 0
0.0625 0.4375 0
0.0625 0.375 0
0.125 0.375 0
0.0625 0.4375 0
0.125 0.4375 0
0.125 0.375 0
0.1875 0.375 0
0.125 0.4375 0
0.1875 0.4375 0
0.8125 0.375 0
0.875 0.375 0
0.8125 0.4375 0
0.875 0.4375 0
0.875 0.375 0
0.9375 0.375 0
0.875 0.4375 0
0.9375 0.4375 0
0.9375 0.375 0
1 0.375 0
0.9375 0.4375 0
1 0.4375 0
0 0.4375 0
0.0625 0.4375 0
0 0.5 0
0.0625 0.5 0
0.0625 0.4375 0
0.125 0.4375 0
0.0625 0.5 0
0.125 0.5 0
0.125 0.4375 0
0.1875 0.4375 0
0.125 0.5 0
0.1875 0.5 0
0.8125 0.4375 0
0.875 0.4375 0
0.8125 0.5 0
0.875 0.5 0
0.875 0.4375 0
0.9375 0.4375 0
0.875 0.5 0
0.9375 0.5 0
0.9375 0.4375 0
1 0.4375 0
0.9375 0.5 0
1 0.5 0
0 0.5 0
0.0625 0.5 0
0 0.5625 0
0.0625 0.5625 0
0.0625 0.5 0
0.125 0.5 0
0.0625 0.5625 0
0.125 0.5625 0
0.125 0.5 0
0.1875 0.5 0
0.125 0.5625 0
0.1875 0.5625 0
0.8125 0.5 0
0.875 0.5 0
0.8125 0.5625 0
0.875 0.5625 0
0.875 0.5 0
0.9375 0.5 0
0.875 0.5625 0
0.9375 0.5625 0
0.9375 0.5 0
1 0.5 0
0.9375 0.5625 0
1 0.5625 0
0 0.5625 0
0.0625 0.5625 0
0 0.625 0
0.0625 0.625 0
0.0625 0.5625 0
0.125 0.5625 0
0.0625 0.625 0
0.125 0.625 0
0.125 0.5625 0
0.1875 0.5625 0
0.125 0.625 0
0.1875 0.625 0
0.8125 0.5625 0
0.875 0.5625 0
0.8125 0.625 0
0.875 0.625 0
0.875 0.5625 0
0.9375 0.5625 0
0.875 0.625 0
0.9375 0.625 0
0.9375 0.5625 0
1 0.5625 0
0.9375 0.625 0
1 0.625 0
0 0.625 0
0.0625 0.625 0
0 0.6875 0
0.0625 0.6875 0
0.0625 0.625 0
0.125 0.625 0
0.0625 0.6875 0
0.125 0.6875 0
0.125 0.625 0
0.1875 0.625 0
0.125 0.6875 0
0.1875 0.6875 0
0.8125 0.625 0
0.875 0.625 0
0.8125 0.6875 0
0.875 0.6875 0
0.875 0.625 0
0.9375 0.625 0
0.875 0.6875 0
0.9375 0.6875 0
0.9375 0.625 0
1 0.625 0
0.9375 0.6875 0
1 0.6875 0
0 0.6875 0
0.0625 0.6875 0
0 0.75 0
0.0625 0.75 0
0.0625 0.6875 0
0.125 0.6875 0
0.0625 0.75 0
0.125 0.75 0
0.125 0.6875 0
0.1875 0.6875 0
0.125 0.75 0
0.1875 0.75 0
0.1875 0.6875 0
0.25 0.6875 0
0.1875 0.75 0
0.25 0.75 0
0.75 0.6875 0
0.8125 0.6875 0
0.75 0.75 0
0.8125 0.75 0
0.8125 0.6875 0
0.875 0.6875 0
0.8125 0.75 0
0.875 0.75 0
0.875 0.6875 0
0.9375 0.6875 0
0.875 0.75 0
0.9375 0.75 0
0.9375 0.6875 0
1 0.6875 0
0.9375 0.75 0
1 0.75 0
0 0.75 0
0.0625 0.75 0
0 0.8125 0
0.0625 0.8125 0
0.0625 0.75 0
0.125 0.75 0
0.0625 0.8125 0
0.125 0.8125 0
0.125 0.75 0
0.1875 0.75 0
0.125 0.8125 0
0.1875 0.8125 0
0.1875 0.75 0
0.25 0.75 0
0.1875 0.8125 0
0.25 0.8125 0
0.25 0.75 0
0.3125 0.75 0
0.25 0.8125 0
0.3125 0.8125 0
0.6875 0.75 0
0.75 0.75 0
0.6875 0.8125 0
0.75 0.8125 0
0.75 0.75 0
0.8125 0.75 0
0.75 0.8125 0
0.8125 0.8125 0
0.8125 0.75 0
0.875 0.75 0
0.8125 0.8125 0
0.875 0.8125 0
0.875 0.75 0
0.9375 0.75 0
0.875 0.8125 0
0.9375 0.8125 0
0.9375 0.75 0
1 0.75 0
0.9375 0.8125 0
1 0.8125 0
0 0.8125 0
0.0625 0.8125 0
0 0.875 0
0.0625 0.875 0
0.0625 0.8125 0
0.125 0.8125 0
0.0625 0.875 0
0.125 0.875 0
0.125 0.8125 0
0.1875 0.8125 0
0.125 0.875 0
0.1875 0.875 0
0.1875 0.8125 0
0.25 0.8125 0
0.1875 0.875 0
0.25 0.875 0
0.25 0.8125 0
0.3125 0.8125 0
0.25 0.875 0
0.3125 0.875 0
0.3125 0.8125 0
0.375 0.8125 0
0.3125 0.875 0
0.375 0.875 0
0.375 0.8125 0
0.4375 0.8125 0
0.375 0.875 0
0.4375 0.875 0
0.4375 0.8125 0
0.5 0.8125 0
0.4375 0.875 0
0.5 0.875 0
0.5 0.8125 0
0.5625 0.8125 0
0.5 0.875 0
0.5625 0.875 0
0.5625 0.8125 0
0.625 0.8125 0
0.5625 0.875 0
0.625 0.875 0
0.625 0.8125 0
0.6875 0.8125 0
0.625 0.875 0
0.6875 0.875 0
0.6875 0.8125 0
0.75 0.8125 0
0.6875 0.875 0
0.75 0.875 0
0.75 0.8125 0
0.8125 0.8125 0
0.75 0.875 0
0.8125 0.875 0
0.8125 0.8125 0
0.875 0.8125 0
0.8125 0.875 0
0.875 0.875 0
0.875 0.8125 0
0.9375 0.8125 0
0.875 0.875 0
0.9375 0.875 0
0.9375 0.8125 0
1 0.8125 0
0.9375 0.875 0
1 0.875 0
0 0.875 0
0.0625 0.875 0
0 0.9375 0
0.0625 0.9375 0
0.0625 0.875 0
0.125 0.875 0
0.0625 0.9375 0
0.125 0.9375 0
0.125 0.875 0
0.1875 0.875 0
0.125 0.9375 0
0.1875 0.9375 0
0.1875 0.875 0
0.25 0.875 0
0.1875 0.9375 0
0.25 0.9375 0
0.25 0.875 0
0.3125 0.875 0
0.25 0.9375 0
0.3125 0.9375 0
0.3125 0.875 0
0.375 0.875 0
0.3125 0.9375 0
0.375 0.9375 0
0.375 0.875 0
0.4375 0.875 0
0.375 0.9375 0
0.4375 0.9375 0
0.4375 0.875 0
0.5 0.875 0
0.4375 0.9375 0
0.5 0.9375 0
0.5 0.875 0
0.5625 0.875 0
0.5 0.9375 0
0.5625 0.9375 0
0.5625 0.875 0
0.625 0.875 0
0.5625 0.9375 0
0.625 0.9375 0
0.625 0.875 0
0.6875 0.875 0
0.625 0.9375 0
0.6875 0.9375 0
0.6875 0.875 0
0.75 0.875 0
0.6875 0.9375 0
0.75 0.9375 0
0.75 0.875 0
0.8125 0.875 0
0.75 0.9375 0
0.8125 0.9375 0
0.8125 0.875 0
0.875 0.875 0
0.8125 0.9375 0
0.875 0.9375 0
0.875 0.875 0
0.9375 0.875 0
0.875 0.9375 0
0.9375 0.9375 0
0.9375 0.875 0
1 0.875 0
0.9375 0.9375 0
1 0.9375 0
0 0.9375 0
0.0625 0.9375 0
0 1 0
0.0625 1 0
0.0625 0.9375 0
0.125 0.9375 0
0.0625 1 0
0.125 1 0
0.125 0.9375 0
0.1875 0.9375 0
0.125 1 0
0.1875 1 0
0.1875 0.9375 0
0.25 0.9375 0
0.1875 1 0
0.25 1 0
0.25 0.9375 0
0.3125 0.9375 0
0.25 1 0
0.3125 1 0
0.3125 0.9375 0
0.375 0.9375 0
0.3125 1 0
0.375 1 0
0.375 0.9375 0
0.4375 0.9375 0
0.375 1 0
0.4375 1 0
0.4375 0.9375 0
0.5 0.9375 0
0.4375 1 0
0.5 1 0
0.5 0.9375 0
0.5625 0.9375 0
0.5 1 0
0.5625 1 0
0.5625 0.9375 0
0.625 0.9375 0
0.5625 1 0
0.625 1 0
0.625 0.9375 0
0.6875 0.9375 0
0.625 1 0
0.6875 1 0
0.6875 0.9375 0
0.75 0.9375 0
0.6875 1 0
0.75 1 0
0.75 0.9375 0
0.8125 0.9375 0
0.75 1 0
0.8125 1 0
0.8125 0.9375 0
0.875 0.9375 0
0.8125 1 0
0.875 1 0
0.875 0.9375 0
0.9375 0.9375 0
0.875 1 0
0.9375 1 0
0.9375 0.9375 0
1 0.9375 0
0.9375 1 0
1 1 0
0.3125 0.25 0
0.34375 0.25 0
0.3125 0.28125 0
0.34375 0.28125 0
0.65625 0.25 0
0.6875 0.25 0
0.65625 0.28125 0
0.6875 0.28125 0
0.25 0.3125 0
0.28125 0.3125 0
0.25 0.34375 0
0.28125 0.34375 0
0.71875 0.3125 0
0.75 0.3125 0
0.71875 0.34375 0
0.75 0.34375 0
0.25 0.65625 0
0.28125 0.65625 0
0.25 0.6875 0
0.28125 0.6875 0
0.71875 0.65625 0
0.75 0.65625 0
0.71875 0.6875 0
0.75 0.6875 0
0.3125 0.71875 0
0.34375 0.71875 0
0.3125 0.75 0
0.34375 0.75 0
0.65625 0.71875 0
0.6875 0.71875 0
0.65625 0.75 0
0.6875 0.75 0
[...]
POINT_DATA 11248
SCALARS solution double 1
LOOKUP_TABLE default
0 0 0 -2.26783e-07 0 0 -2.26783e-07 -4.49171e-07 0 0 -4.49171e-07 -6.05017e-07 0 0 -6.05017e-07 -5.3955e-07 0 0 -5.3955e-07 -2.20727e-07 0 0 -2.20727e-07 4.46605e-07 0 0 4.46605e-07 1.71139e-06 0 0 1.71139e-06 2.38641e-06 0 0 2.38641e-06 1.71139e-06 0 0 1.71139e-06 4.46605e-07 0 0 4.46605e-07 -2.20727e-07 0 0 -2.20727e-07 -5.3955e-07 0 0 -5.3955e-07 -6.05017e-07 0 0 -6.05017e-07 -4.49171e-07 0 0 -4.49171e-07 -2.26783e-07 0 0 -2.26783e-07 0 0 -2.26783e-07 0 -4.49171e-07 -2.26783e-07 -4.49171e-07 -4.49171e-07 -8.69359e-07 -4.49171e-07 -6.05017e-07 -8.69359e-07 5.43329e-07 -6.05017e-07 -5.3955e-07 5.43329e-07 1.39266e-05 -5.3955e-07 -2.20727e-07 1.39266e-05 5.75205e-05 -2.20727e-07 4.46605e-07 5.75205e-05 0.000134837 4.46605e-07 1.71139e-06 0.000134837 0.000221741 1.71139e-06 2.38641e-06 0.000221741 0.000260576 2.38641e-06 1.71139e-06 0.000260576 0.000221741 1.71139e-06 4.46605e-07 0.000221741 0.000134837 4.46605e-07 -2.20727e-07 0.000134837 5.75205e-05 -2.20727e-07 -5.3955e-07 5.75205e-05 1.39266e-05 -5.3955e-07 -6.05017e-07 1.39266e-05 5.43329e-07 -6.05017e-07 -4.49171e-07 5.43329e-07 -8.69359e-07 -4.49171e-07 -2.26783e-07 -8.69359e-07 -4.49171e-07 -2.26783e-07 0 -4.49171e-07 0 0 -4.49171e-07 0 -6.05017e-07 -4.49171e-07 -8.69359e-07 -6.05017e-07 5.43329e-07 -8.69359e-07 5.43329e-07 5.43329e-07 4.88443e-05 5.43329e-07 1.39266e-05 4.88443e-05 0.000400085 1.39266e-05 5.75205e-05 0.000400085 0.00158115 5.75205e-05 0.000134837 0.00158115 0.00370328 0.000134837 0.000221741 0.00370328 0.00602963 0.000221741 0.000260576 0.00602963 0.00705925 0.000260576 0.000221741 0.00705925 0.00602963 0.000221741 0.000134837 0.00602963 0.00370328 0.000134837 5.75205e-05 0.00370328 0.00158115 5.75205e-05 1.39266e-05 0.00158115 0.000400085 1.39266e-05 5.43329e-07 0.000400085 4.88443e-05 5.43329e-07 -8.69359e-07 4.88443e-05 5.43329e-07 -8.69359e-07 -4.49171e-07 5.43329e-07 -6.05017e-07 -4.49171e-07 0 -6.05017e-07 0 0 -6.05017e-07 0 -5.3955e-07 -6.05017e-07 5.43329e-07 -5.3955e-07 1.39266e-05 5.43329e-07 4.88443e-05 1.39266e-05 0.000400085 4.88443e-05 0.000400085 0.000400085 0.00318229 0.000400085 0.00158115 0.00318229 0.012329 0.00158115 0.000400085 0.012329 0.00318229 0.000400085 4.88443e-05 0.00318229 0.000400085 4.88443e-05 5.43329e-07 0.000400085 1.39266e-05 5.43329e-07 -6.05017e-07 1.39266e-05 -5.3955e-07 -6.05017e-07 0 -5.3955e-07 0 0 -5.3955e-07 0 -2.20727e-07 -5.3955e-07 1.39266e-05 -2.20727e-07 5.75205e-05 1.39266e-05 0.000400085 5.75205e-05 0.00158115 0.000400085 0.00318229 0.00158115 0.012329 0.00318229 0.000400085 0.012329 0.00158115 0.000400085 1.39266e-05 0.00158115 5.75205e-05 1.39266e-05 -5.3955e-07 5.75205e-05 -2.20727e-07 -5.3955e-07 0 -2.20727e-07 0 0 -2.20727e-07 0 4.46605e-07 -2.20727e-07 5.75205e-05 4.46605e-07 0.000134837 5.75205e-05 0.00158115 0.000134837 0.00370328 0.00158115 5.75205e-05 0.00370328 0.000134837 5.75205e-05 -2.20727e-07 0.000134837 4.46605e-07 -2.20727e-07 0 4.46605e-07 0 0 4.46605e-07 0 1.71139e-06 4.46605e-07 0.000134837 1.71139e-06 0.000221741 0.000134837 0.00370328 0.000221741 0.00602963 0.00370328 0.000134837 0.00602963 0.000221741 0.000134837 4.46605e-07 0.000221741 1.71139e-06 4.46605e-07 0 1.71139e-06 0 0 1.71139e-06 0 2.38641e-06 1.71139e-06 0.000221741 2.38641e-06 0.000260576 0.000221741 0.00602963 0.000260576 0.00705925 0.00602963 0.000221741 0.00705925 0.000260576 0.000221741 1.71139e-06 0.000260576 2.38641e-06 1.71139e-06 0 2.38641e-06 0 0 2.38641e-06 0 1.71139e-06 2.38641e-06 0.000260576 1.71139e-06 0.000221741 0.000260576 0.00705925 0.000221741 0.00602963 0.00705925 0.000260576 0.00602963 0.000221741 0.000260576 2.38641e-06 0.000221741 1.71139e-06 2.38641e-06 0 1.71139e-06 0 0 1.71139e-06 0 4.46605e-07 1.71139e-06 0.000221741 4.46605e-07 0.000134837 0.000221741 0.00602963 0.000134837 0.00370328 0.00602963 0.000221741 0.00370328 0.000134837 0.000221741 1.71139e-06 0.000134837 4.46605e-07 1.71139e-06 0 4.46605e-07 0 0 4.46605e-07 0 -2.20727e-07 4.46605e-07 0.000134837 -2.20727e-07 5.75205e-05 0.000134837 0.00370328 5.75205e-05 0.00158115 0.00370328 0.000134837 0.00158115 5.75205e-05 0.000134837 4.46605e-07 5.75205e-05 -2.20727e-07 4.46605e-07 0 -2.20727e-07 0 0 -2.20727e-07 0 -5.3955e-07 -2.20727e-07 5.75205e-05 -5.3955e-07 1.39266e-05 5.75205e-05 0.00158115 1.39266e-05 0.000400085 0.00158115 0.012329 0.000400085 0.00318229 0.012329 0.00158115 0.00318229 0.000400085 0.00158115 5.75205e-05 0.000400085 1.39266e-05 5.75205e-05 -2.20727e-07 1.39266e-05 -5.3955e-07 -2.20727e-07 0 -5.3955e-07 0 0 -5.3955e-07 0 -6.05017e-07 -5.3955e-07 1.39266e-05 -6.05017e-07 5.43329e-07 1.39266e-05 0.000400085 5.43329e-07 4.88443e-05 0.000400085 0.00318229 4.88443e-05 0.000400085 0.00318229 0.012329 0.000400085 0.00158115 0.012329 0.00318229 0.00158115 0.000400085 0.00318229 0.000400085 0.000400085 4.88443e-05 0.000400085 1.39266e-05 4.88443e-05 5.43329e-07 1.39266e-05 -5.3955e-07 5.43329e-07 -6.05017e-07 -5.3955e-07 0 -6.05017e-07 0 0 -6.05017e-07 0 -4.49171e-07 -6.05017e-07 5.43329e-07 -4.49171e-07 -8.69359e-07 5.43329e-07 4.88443e-05 -8.69359e-07 5.43329e-07 4.88443e-05 0.000400085 5.43329e-07 1.39266e-05 0.000400085 0.00158115 1.39266e-05 5.75205e-05 0.00158115 0.00370328 5.75205e-05 0.000134837 0.00370328 0.00602963 0.000134837 0.000221741 0.00602963 0.00705925 0.000221741 0.000260576 0.00705925 0.00602963 0.000260576 0.000221741 0.00602963 0.00370328 0.000221741 0.000134837 0.00370328 0.00158115 0.000134837 5.75205e-05 0.00158115 0.000400085 5.75205e-05 1.39266e-05 0.000400085 4.88443e-05 1.39266e-05 5.43329e-07 4.88443e-05 5.43329e-07 5.43329e-07 -8.69359e-07 5.43329e-07 -6.05017e-07 -8.69359e-07 -4.49171e-07 -6.05017e-07 0 -4.49171e-07 0 0 -4.49171e-07 0 -2.26783e-07 -4.49171e-07 -8.69359e-07 -2.26783e-07 -4.49171e-07 -8.69359e-07 5.43329e-07 -4.49171e-07 -6.05017e-07 5.43329e-07 1.39266e-05 -6.05017e-07 -5.3955e-07 1.39266e-05 5.75205e-05 -5.3955e-07 -2.20727e-07 5.75205e-05 0.000134837 -2.20727e-07 4.46605e-07 0.000134837 0.000221741 4.46605e-07 1.71139e-06 0.000221741 0.000260576 1.71139e-06 2.38641e-06 0.000260576 0.000221741 2.38641e-06 1.71139e-06 0.000221741 0.000134837 1.71139e-06 4.46605e-07 0.000134837 5.75205e-05 4.46605e-07 -2.20727e-07 5.75205e-05 1.39266e-05 -2.20727e-07 -5.3955e-07 1.39266e-05 5.43329e-07 -5.3955e-07 -6.05017e-07 5.43329e-07 -8.69359e-07 -6.05017e-07 -4.49171e-07 -8.69359e-07 -4.49171e-07 -4.49171e-07 -2.26783e-07 -4.49171e-07 0 -2.26783e-07 0 0 -2.26783e-07 0 0 -2.26783e-07 -4.49171e-07 0 0 -4.49171e-07 -6.05017e-07 0 0 -6.05017e-07 -5.3955e-07 0 0 -5.3955e-07 -2.20727e-07 0 0 -2.20727e-07 4.46605e-07 0 0 4.46605e-07 1.71139e-06 0 0 1.71139e-06 2.38641e-06 0 0 2.38641e-06 1.71139e-06 0 0 1.71139e-06 4.46605e-07 0 0 4.46605e-07 -2.20727e-07 0 0 -2.20727e-07 -5.3955e-07 0 0 -5.3955e-07 -6.05017e-07 0 0 -6.05017e-07 -4.49171e-07 0 0 -4.49171e-07 -2.26783e-07 0 0 -2.26783e-07 0 0 0 0.012329 0.0201576 0.0262432 0.0427543 0.0201576 0.012329 0.0427543 0.0262432 0.012329 0.0262432 0.0201576 0.0427543 0.0262432 0.012329 0.0427543 0.0201576 0.0201576 0.0427543 0.012329 0.0262432 0.0427543 0.0201576 0.0262432 0.012329 0.0262432 0.0427543 0.012329 0.0201576 0.0427543 0.0262432 0.0201576 0.012329 0.00370328 0.0049339 0.0116864 0.0155857 0.0049339 0.00602963 0.0155857 0.0190338 0.0116864 0.0155857 0.0295331 0.0393604 0.00602963 0.00678347 0.0190338 0.0214243 0.00678347 0.00705925 0.0214243 0.0222792 0.00705925 0.00678347 0.0222792 0.0214243 0.00678347 0.00602963 0.0214243 0.0190338 0.00602963 0.0049339 0.0190338 0.0155857 0.0049339 0.00370328 0.0155857 0.0116864 0.0155857 0.0116864 0.0393604 0.0295331 0.00318229 0.00673001 0.00673001 0.0142715 0.00673001 0.012329 0.0142715 0.0262432 0.00673001 0.0142715 0.012329 0.0262432 0.0142715 0.0262432 0.0262432 0.0482634 0.012329 0.00673001 0.0262432 0.0142715 0.00673001 0.00318229 0.0142715 0.00673001 0.0262432 0.0142715 0.0482634 0.0262432 0.0142715 0.00673001 0.0262432 0.012329 0.00370328 0.0116864 0.0049339 0.0155857 0.0116864 0.0295331 0.0155857 0.0393604 0.0049339 0.0155857 0.00602963 0.0190338 0.0295331 0.0116864 0.0393604 0.0155857 0.0116864 0.00370328 0.0155857 0.0049339 0.0155857 0.0049339 0.0190338 0.00602963 0.00602963 0.0190338 0.00678347 0.0214243 0.00678347 0.0214243 0.00705925 0.0222792 0.0190338 0.00602963 0.0214243 0.00678347 0.0214243 0.00678347 0.0222792 0.00705925 0.00705925 0.0222792 0.00678347 0.0214243 0.00678347 0.0214243 0.00602963 0.0190338 0.0222792 0.00705925 0.0214243 0.00678347 0.0214243 0.00678347 0.0190338 0.00602963 0.00602963 0.0190338 0.0049339 0.0155857 0.0049339 0.0155857 0.00370328 0.0116864 0.0155857 0.0393604 0.0116864 0.0295331 0.0190338 0.00602963 0.0155857 0.0049339 0.0393604 0.0155857 0.0295331 0.0116864 0.0155857 0.0049339 0.0116864 0.00370328 0.012329 0.0262432 0.00673001 0.0142715 0.0262432 0.0482634 0.0142715 0.0262432 0.00673001 0.0142715 0.00318229 0.00673001 0.0142715 0.0262432 0.00673001 0.012329 0.0482634 0.0262432 0.0262432 0.0142715 0.0262432 0.012329 0.0142715 0.00673001 0.0262432 0.0142715 0.012329 0.00673001 0.0142715 0.00673001 0.00673001 0.00318229 0.0295331 0.0393604 0.0116864 0.0155857 0.0116864 0.0155857 0.00370328 0.0049339 0.0155857 0.0190338 0.0049339 0.00602963 0.0190338 0.0214243 0.00602963 0.00678347 0.0214243 0.0222792 0.00678347 0.00705925 0.0222792 0.0214243 0.00705925 0.00678347 0.0214243 0.0190338 0.00678347 0.00602963 0.0393604 0.0295331 0.0155857 0.0116864 0.0190338 0.0155857 0.00602963 0.0049339 0.0155857 0.0116864 0.0049339 0.00370328 0.00158115 0.00251581 0.00489646 0.00797421 0.00251581 0.00370328 0.00797421 0.0116864 0.00489646 0.00797421 0.012329 0.0201576 0.00797421 0.0116864 0.0201576 0.0295331 0.00370328 0.00251581 0.0116864 0.00797421 0.00251581 0.00158115 0.00797421 0.00489646 0.0116864 0.00797421 0.0295331 0.0201576 0.00797421 0.00489646 0.0201576 0.012329 0.00158115 0.00489646 0.00251581 0.00797421 0.00489646 0.012329 0.00797421 0.0201576 0.00251581 0.00797421 0.00370328 0.0116864 0.00797421 0.0201576 0.0116864 0.0295331 0.012329 0.00489646 0.0201576 0.00797421 0.00489646 0.00158115 0.00797421 0.00251581 0.0201576 0.00797421 0.0295331 0.0116864 0.00797421 0.00251581 0.0116864 0.00370328 0.00370328 0.0116864 0.00251581 0.00797421 0.0116864 0.0295331 0.00797421 0.0201576 0.00251581 0.00797421 0.00158115 0.00489646 0.00797421 0.0201576 0.00489646 0.012329 0.0295331 0.0116864 0.0201576 0.00797421 0.0116864 0.00370328 0.00797421 0.00251581 0.0201576 0.00797421 0.012329 0.00489646 0.00797421 0.00251581 0.00489646 0.00158115 0.012329 0.0201576 0.00489646 0.00797421 0.0201576 0.0295331 0.00797421 0.0116864 0.00489646 0.00797421 0.00158115 0.00251581 0.00797421 0.0116864 0.00251581 0.00370328 0.0295331 0.0201576 0.0116864 0.00797421 0.0201576 0.012329 0.00797421 0.00489646 0.0116864 0.00797421 0.00370328 0.00251581 0.00797421 0.00489646 0.00251581 0.00158115 0.0626635 0.0731716 0.0863714 0.100856 0.0731716 0.0835341 0.100856 0.11514 0.0863714 0.100856 0.115222 0.134545 0.100856 0.11514 0.134545 0.153599 0.0835341 0.0933149 0.11514 0.128621 0.0933149 0.102071 0.128621 0.14069 0.11514 0.128621 0.153599 0.171585 0.128621 0.14069 0.171585 0.187685 0.0481065 0.0515526 0.0714602 0.0765801 0.0515526 0.0541488 0.0765801 0.0804369 0.0714602 0.0765801 0.102071 0.109385 0.0765801 0.0804369 0.109385 0.114894 0.0541488 0.0557624 0.0804369 0.0828341 0.0557624 0.0563098 0.0828341 0.0836474 0.0804369 0.0828341 0.114894 0.118318 0.0828341 0.0836474 0.118318 0.11948 0.102071 0.109385 0.14069 0.15077 0.109385 0.114894 0.15077 0.158365 0.14069 0.15077 0.187685 0.201135 0.114894 0.118318 0.158365 0.163085 0.118318 0.11948 0.163085 0.164686 0.0563098 0.0557624 0.0836474 0.0828341 0.0557624 0.0541488 0.0828341 0.0804369 0.0836474 0.0828341 0.11948 0.118318 0.0828341 0.0804369 0.118318 0.114894 0.0541488 0.0515526 0.0804369 0.0765801 0.0515526 0.0481065 0.0765801 0.0714602 0.0804369 0.0765801 0.114894 0.109385 0.0765801 0.0714602 0.109385 0.102071 0.11948 0.118318 0.164686 0.163085 0.118318 0.114894 0.163085 0.158365 0.114894 0.109385 0.158365 0.15077 0.109385 0.102071 0.15077 0.14069 0.15077 0.14069 0.201135 0.187685 0.102071 0.0933149 0.14069 0.128621 0.0933149 0.0835341 0.128621 0.11514 0.14069 0.128621 0.187685 0.171585 0.128621 0.11514 0.171585 0.153599 0.0835341 0.0731716 0.11514 0.100856 0.0731716 0.0626635 0.100856 0.0863714 0.11514 0.100856 0.153599 0.134545 0.100856 0.0863714 0.134545 0.115222 0.0482634 0.0624728 0.0624728 0.0808622 0.0624728 0.0786208 0.0808622 0.101763 0.0624728 0.0808622 0.0786208 0.101763 0.0808622 0.101763 0.101763 0.128066 0.0786208 0.0963691 0.101763 0.124735 0.0963691 0.115222 0.124735 0.149135 0.101763 0.124735 0.128066 0.156974 0.124735 0.149135 0.156974 0.187688 0.0786208 0.101763 0.0963691 0.124735 0.101763 0.128066 0.124735 0.156974 0.0963691 0.124735 0.115222 0.149135 0.124735 0.156974 0.149135 0.187688 0.128066 0.156974 0.156974 0.192415 0.115222 0.134545 0.149135 0.174149 0.134545 0.153599 0.174149 0.198816 0.153599 0.134545 0.198816 0.174149 0.134545 0.115222 0.174149 0.149135 0.115222 0.0963691 0.149135 0.124735 0.0963691 0.0786208 0.124735 0.101763 0.149135 0.124735 0.187688 0.156974 0.124735 0.101763 0.156974 0.128066 0.0786208 0.0624728 0.101763 0.0808622 0.0624728 0.0482634 0.0808622 0.0624728 0.101763 0.0808622 0.128066 0.101763 0.0808622 0.0624728 0.101763 0.0786208 0.156974 0.128066 0.192415 0.156974 0.128066 0.101763 0.156974 0.124735 0.101763 0.0786208 0.124735 0.0963691 0.156974 0.124735 0.187688 0.149135 0.124735 0.0963691 0.149135 0.115222 0.0626635 0.0863714 0.0731716 0.100856 0.0863714 0.115222 0.100856 0.134545 0.0731716 0.100856 0.0835341 0.11514 0.100856 0.134545 0.11514 0.153599 0.0835341 0.11514 0.0933149 0.128621 0.11514 0.153599 0.128621 0.171585 0.0933149 0.128621 0.102071 0.14069 0.128621 0.171585 0.14069 0.187685 0.115222 0.149135 0.134545 0.174149 0.134545 0.174149 0.153599 0.198816 0.149135 0.115222 0.174149 0.134545 0.174149 0.134545 0.198816 0.153599 0.115222 0.0863714 0.134545 0.100856 0.0863714 0.0626635 0.100856 0.0731716 0.134545 0.100856 0.153599 0.11514 0.100856 0.0731716 0.11514 0.0835341 0.153599 0.11514 0.171585 0.128621 0.11514 0.0835341 0.128621 0.0933149 0.171585 0.128621 0.187685 0.14069 0.128621 0.0933149 0.14069 0.102071 0.0481065 0.0714602 0.0515526 0.0765801 0.0714602 0.102071 0.0765801 0.109385 0.0515526 0.0765801 0.0541488 0.0804369 0.0765801 0.109385 0.0804369 0.114894 0.102071 0.14069 0.109385 0.15077 0.14069 0.187685 0.15077 0.201135 0.109385 0.15077 0.114894 0.158365 0.0541488 0.0804369 0.0557624 0.0828341 0.0804369 0.114894 0.0828341 0.118318 0.0557624 0.0828341 0.0563098 0.0836474 0.0828341 0.118318 0.0836474 0.11948 0.114894 0.158365 0.118318 0.163085 0.118318 0.163085 0.11948 0.164686 0.906598 0.915504 0.952269 0.961616 0.906598 0.952269 0.915504 0.961616 0.924701 0.952269 0.952269 0.980648 0.952269 0.961616 0.980648 0.990276 0.952269 0.980648 0.961616 0.990276 0.980648 0.990276 0.990276 0.999999 0.915504 0.906598 0.961616 0.952269 0.961616 0.952269 0.990276 0.980648 0.952269 0.924701 0.980648 0.952269 0.990276 0.980648 0.999999 0.990276 0.980648 0.952269 0.990276 0.961616 0.952269 0.906598 0.961616 0.915504 0.187685 0.14069 0.201135 0.15077 0.14069 0.102071 0.15077 0.109385 0.15077 0.109385 0.158365 0.114894 0.102071 0.0714602 0.109385 0.0765801 0.0714602 0.0481065 0.0765801 0.0515526 0.109385 0.0765801 0.114894 0.0804369 0.0765801 0.0515526 0.0804369 0.0541488 0.158365 0.114894 0.163085 0.118318 0.163085 0.118318 0.164686 0.11948 0.114894 0.0804369 0.118318 0.0828341 0.0804369 0.0541488 0.0828341 0.0557624 0.118318 0.0828341 0.11948 0.0836474 0.0828341 0.0557624 0.0836474 0.0563098 0.0563098 0.0836474 0.0557624 0.0828341 0.0836474 0.11948 0.0828341 0.118318 0.0557624 0.0828341 0.0541488 0.0804369 0.0828341 0.118318 0.0804369 0.114894 0.11948 0.164686 0.118318 0.163085 0.118318 0.163085 0.114894 0.158365 0.0541488 0.0804369 0.0515526 0.0765801 0.0804369 0.114894 0.0765801 0.109385 0.0515526 0.0765801 0.0481065 0.0714602 0.0765801 0.109385 0.0714602 0.102071 0.114894 0.158365 0.109385 0.15077 0.109385 0.15077 0.102071 0.14069 0.15077 0.201135 0.14069 0.187685 0.915504 0.961616 0.906598 0.952269 0.961616 0.990276 0.952269 0.980648 0.990276 0.999999 0.980648 0.990276 0.952269 0.980648 0.924701 0.952269 0.980648 0.990276 0.952269 0.961616 0.952269 0.961616 0.906598 0.915504 0.999999 0.990276 0.990276 0.980648 0.990276 0.961616 0.980648 0.952269 0.990276 0.980648 0.961616 0.952269 0.980648 0.952269 0.952269 0.924701 0.961616 0.915504 0.952269 0.906598 0.961616 0.952269 0.915504 0.906598 0.164686 0.11948 0.163085 0.118318 0.163085 0.118318 0.158365 0.114894 0.11948 0.0836474 0.118318 0.0828341 0.0836474 0.0563098 0.0828341 0.0557624 0.118318 0.0828341 0.114894 0.0804369 0.0828341 0.0557624 0.0804369 0.0541488 0.158365 0.114894 0.15077 0.109385 0.201135 0.15077 0.187685 0.14069 0.15077 0.109385 0.14069 0.102071 0.114894 0.0804369 0.109385 0.0765801 0.0804369 0.0541488 0.0765801 0.0515526 0.109385 0.0765801 0.102071 0.0714602 0.0765801 0.0515526 0.0714602 0.0481065 0.102071 0.14069 0.0933149 0.128621 0.14069 0.187685 0.128621 0.171585 0.0933149 0.128621 0.0835341 0.11514 0.128621 0.171585 0.11514 0.153599 0.0835341 0.11514 0.0731716 0.100856 0.11514 0.153599 0.100856 0.134545 0.0731716 0.100856 0.0626635 0.0863714 0.100856 0.134545 0.0863714 0.115222 0.153599 0.198816 0.134545 0.174149 0.134545 0.174149 0.115222 0.149135 0.198816 0.153599 0.174149 0.134545 0.174149 0.134545 0.149135 0.115222 0.187685 0.14069 0.171585 0.128621 0.14069 0.102071 0.128621 0.0933149 0.171585 0.128621 0.153599 0.11514 0.128621 0.0933149 0.11514 0.0835341 0.153599 0.11514 0.134545 0.100856 0.11514 0.0835341 0.100856 0.0731716 0.134545 0.100856 0.115222 0.0863714 0.100856 0.0731716 0.0863714 0.0626635 0.115222 0.149135 0.0963691 0.124735 0.149135 0.187688 0.124735 0.156974 0.0963691 0.124735 0.0786208 0.101763 0.124735 0.156974 0.101763 0.128066 0.156974 0.192415 0.128066 0.156974 0.0786208 0.101763 0.0624728 0.0808622 0.101763 0.128066 0.0808622 0.101763 0.0624728 0.0808622 0.0482634 0.0624728 0.0808622 0.101763 0.0624728 0.0786208 0.128066 0.156974 0.101763 0.124735 0.156974 0.187688 0.124735 0.149135 0.101763 0.124735 0.0786208 0.0963691 0.124735 0.149135 0.0963691 0.115222 0.149135 0.174149 0.115222 0.134545 0.174149 0.198816 0.134545 0.153599 0.198816 0.174149 0.153599 0.134545 0.174149 0.149135 0.134545 0.115222 0.192415 0.156974 0.156974 0.128066 0.187688 0.149135 0.156974 0.124735 0.149135 0.115222 0.124735 0.0963691 0.156974 0.124735 0.128066 0.101763 0.124735 0.0963691 0.101763 0.0786208 0.187688 0.156974 0.149135 0.124735 0.156974 0.128066 0.124735 0.101763 0.149135 0.124735 0.115222 0.0963691 0.124735 0.101763 0.0963691 0.0786208 0.128066 0.101763 0.101763 0.0808622 0.101763 0.0786208 0.0808622 0.0624728 0.101763 0.0808622 0.0786208 0.0624728 0.0808622 0.0624728 0.0624728 0.0482634 0.115222 0.134545 0.0863714 0.100856 0.134545 0.153599 0.100856 0.11514 0.0863714 0.100856 0.0626635 0.0731716 0.100856 0.11514 0.0731716 0.0835341 0.153599 0.171585 0.11514 0.128621 0.171585 0.187685 0.128621 0.14069 0.11514 0.128621 0.0835341 0.0933149 0.128621 0.14069 0.0933149 0.102071 0.187685 0.201135 0.14069 0.15077 0.14069 0.15077 0.102071 0.109385 0.15077 0.158365 0.109385 0.114894 0.158365 0.163085 0.114894 0.118318 0.163085 0.164686 0.118318 0.11948 0.102071 0.109385 0.0714602 0.0765801 0.109385 0.114894 0.0765801 0.0804369 0.0714602 0.0765801 0.0481065 0.0515526 0.0765801 0.0804369 0.0515526 0.0541488 0.114894 0.118318 0.0804369 0.0828341 0.118318 0.11948 0.0828341 0.0836474 0.0804369 0.0828341 0.0541488 0.0557624 0.0828341 0.0836474 0.0557624 0.0563098 0.164686 0.163085 0.11948 0.118318 0.163085 0.158365 0.118318 0.114894 0.201135 0.187685 0.15077 0.14069 0.158365 0.15077 0.114894 0.109385 0.15077 0.14069 0.109385 0.102071 0.11948 0.118318 0.0836474 0.0828341 0.118318 0.114894 0.0828341 0.0804369 0.0836474 0.0828341 0.0563098 0.0557624 0.0828341 0.0804369