# vtk DataFile Version 3.0
#This file was generated by the deal.II library on 2020/5/27 at 9:08:37
ASCII
DATASET UNSTRUCTURED_GRID

POINTS 1648 double
-1 -1 0
-0.875 -1 0
-1 -0.875 0
-0.875 -0.875 0
-0.875 -1 0
-0.75 -1 0
-0.875 -0.875 0
-0.75 -0.875 0
-0.75 -1 0
-0.625 -1 0
-0.75 -0.875 0
-0.625 -0.875 0
-0.625 -1 0
-0.5 -1 0
-0.625 -0.875 0
-0.5 -0.875 0
-0.5 -1 0
-0.375 -1 0
-0.5 -0.875 0
-0.375 -0.875 0
-0.375 -1 0
-0.25 -1 0
-0.375 -0.875 0
-0.25 -0.875 0
-0.25 -1 0
-0.125 -1 0
-0.25 -0.875 0
-0.125 -0.875 0
0.25 -1 0
0.375 -1 0
0.25 -0.875 0
0.375 -0.875 0
0.375 -1 0
0.5 -1 0
0.375 -0.875 0
0.5 -0.875 0
0.5 -1 0
0.625 -1 0
0.5 -0.875 0
0.625 -0.875 0
0.625 -1 0
0.75 -1 0
0.625 -0.875 0
0.75 -0.875 0
0.75 -1 0
0.875 -1 0
0.75 -0.875 0
0.875 -0.875 0
0.875 -1 0
1 -1 0
0.875 -0.875 0
1 -0.875 0
-1 -0.875 0
-0.875 -0.875 0
-1 -0.75 0
-0.875 -0.75 0
-0.875 -0.875 0
-0.75 -0.875 0
-0.875 -0.75 0
-0.75 -0.75 0
-0.75 -0.875 0
-0.625 -0.875 0
-0.75 -0.75 0
-0.625 -0.75 0
-0.625 -0.875 0
-0.5 -0.875 0
-0.625 -0.75 0
-0.5 -0.75 0
-0.5 -0.875 0
-0.375 -0.875 0
-0.5 -0.75 0
-0.375 -0.75 0
-0.375 -0.875 0
-0.25 -0.875 0
-0.375 -0.75 0
-0.25 -0.75 0
-0.25 -0.875 0
-0.125 -0.875 0
-0.25 -0.75 0
-0.125 -0.75 0
0.25 -0.875 0
0.375 -0.875 0
0.25 -0.75 0
0.375 -0.75 0
0.375 -0.875 0
0.5 -0.875 0
0.375 -0.75 0
0.5 -0.75 0
0.5 -0.875 0
0.625 -0.875 0
0.5 -0.75 0
0.625 -0.75 0
0.625 -0.875 0
0.75 -0.875 0
0.625 -0.75 0
0.75 -0.75 0
0.75 -0.875 0
0.875 -0.875 0
0.75 -0.75 0
0.875 -0.75 0
0.875 -0.875 0
1 -0.875 0
0.875 -0.75 0
1 -0.75 0
-1 -0.75 0
-0.875 -0.75 0
-1 -0.625 0
-0.875 -0.625 0
-0.875 -0.75 0
-0.75 -0.75 0
-0.875 -0.625 0
-0.75 -0.625 0
-0.75 -0.75 0
-0.625 -0.75 0
-0.75 -0.625 0
-0.625 -0.625 0
-0.625 -0.75 0
-0.5 -0.75 0
-0.625 -0.625 0
-0.5 -0.625 0
-0.5 -0.75 0
-0.375 -0.75 0
-0.5 -0.625 0
-0.375 -0.625 0
-0.375 -0.75 0
-0.25 -0.75 0
-0.375 -0.625 0
-0.25 -0.625 0
-0.25 -0.75 0
-0.125 -0.75 0
-0.25 -0.625 0
-0.125 -0.625 0
0.25 -0.75 0
0.375 -0.75 0
0.25 -0.625 0
0.375 -0.625 0
0.375 -0.75 0
0.5 -0.75 0
0.375 -0.625 0
0.5 -0.625 0
0.5 -0.75 0
0.625 -0.75 0
0.5 -0.625 0
0.625 -0.625 0
0.625 -0.75 0
0.75 -0.75 0
0.625 -0.625 0
0.75 -0.625 0
0.75 -0.75 0
0.875 -0.75 0
0.75 -0.625 0
0.875 -0.625 0
0.875 -0.75 0
1 -0.75 0
0.875 -0.625 0
1 -0.625 0
-1 -0.625 0
-0.875 -0.625 0
-1 -0.5 0
-0.875 -0.5 0
-0.875 -0.625 0
-0.75 -0.625 0
-0.875 -0.5 0
-0.75 -0.5 0
-0.75 -0.625 0
-0.625 -0.625 0
-0.75 -0.5 0
-0.625 -0.5 0
-0.625 -0.625 0
-0.5 -0.625 0
-0.625 -0.5 0
-0.5 -0.5 0
-0.5 -0.625 0
-0.375 -0.625 0
-0.5 -0.5 0
-0.375 -0.5 0
-0.375 -0.625 0
-0.25 -0.625 0
-0.375 -0.5 0
-0.25 -0.5 0
-0.25 -0.625 0
-0.125 -0.625 0
-0.25 -0.5 0
-0.125 -0.5 0
0.25 -0.625 0
0.375 -0.625 0
0.25 -0.5 0
0.375 -0.5 0
0.375 -0.625 0
0.5 -0.625 0
0.375 -0.5 0
0.5 -0.5 0
0.5 -0.625 0
0.625 -0.625 0
0.5 -0.5 0
0.625 -0.5 0
0.625 -0.625 0
0.75 -0.625 0
0.625 -0.5 0
0.75 -0.5 0
0.75 -0.625 0
0.875 -0.625 0
0.75 -0.5 0
0.875 -0.5 0
0.875 -0.625 0
1 -0.625 0
0.875 -0.5 0
1 -0.5 0
-1 -0.5 0
-0.875 -0.5 0
-1 -0.375 0
-0.875 -0.375 0
-0.875 -0.5 0
-0.75 -0.5 0
-0.875 -0.375 0
-0.75 -0.375 0
-0.75 -0.5 0
-0.625 -0.5 0
-0.75 -0.375 0
-0.625 -0.375 0
-0.625 -0.5 0
-0.5 -0.5 0
-0.625 -0.375 0
-0.5 -0.375 0
-0.5 -0.5 0
-0.375 -0.5 0
-0.5 -0.375 0
-0.375 -0.375 0
-0.375 -0.5 0
-0.25 -0.5 0
-0.375 -0.375 0
-0.25 -0.375 0
-0.25 -0.5 0
-0.125 -0.5 0
-0.25 -0.375 0
-0.125 -0.375 0
0.25 -0.5 0
0.375 -0.5 0
0.25 -0.375 0
0.375 -0.375 0
0.375 -0.5 0
0.5 -0.5 0
0.375 -0.375 0
0.5 -0.375 0
0.5 -0.5 0
0.625 -0.5 0
0.5 -0.375 0
0.625 -0.375 0
0.625 -0.5 0
0.75 -0.5 0
0.625 -0.375 0
0.75 -0.375 0
0.75 -0.5 0
0.875 -0.5 0
0.75 -0.375 0
0.875 -0.375 0
0.875 -0.5 0
1 -0.5 0
0.875 -0.375 0
1 -0.375 0
-1 -0.375 0
-0.875 -0.375 0
-1 -0.25 0
-0.875 -0.25 0
-0.875 -0.375 0
-0.75 -0.375 0
-0.875 -0.25 0
-0.75 -0.25 0
-0.75 -0.375 0
-0.625 -0.375 0
-0.75 -0.25 0
-0.625 -0.25 0
-0.625 -0.375 0
-0.5 -0.375 0
-0.625 -0.25 0
-0.5 -0.25 0
-0.5 -0.375 0
-0.375 -0.375 0
-0.5 -0.25 0
-0.375 -0.25 0
-0.375 -0.375 0
-0.25 -0.375 0
-0.375 -0.25 0
-0.25 -0.25 0
-0.25 -0.375 0
-0.125 -0.375 0
-0.25 -0.25 0
-0.125 -0.25 0
0.25 -0.375 0
0.375 -0.375 0
0.25 -0.25 0
0.375 -0.25 0
0.375 -0.375 0
0.5 -0.375 0
0.375 -0.25 0
0.5 -0.25 0
0.5 -0.375 0
0.625 -0.375 0
0.5 -0.25 0
0.625 -0.25 0
0.625 -0.375 0
0.75 -0.375 0
0.625 -0.25 0
0.75 -0.25 0
0.75 -0.375 0
0.875 -0.375 0
0.75 -0.25 0
0.875 -0.25 0
0.875 -0.375 0
1 -0.375 0
0.875 -0.25 0
1 -0.25 0
-1 -0.25 0
-0.875 -0.25 0
-1 -0.125 0
-0.875 -0.125 0
-0.875 -0.25 0
-0.75 -0.25 0
-0.875 -0.125 0
-0.75 -0.125 0
-0.75 -0.25 0
-0.625 -0.25 0
-0.75 -0.125 0
-0.625 -0.125 0
-0.625 -0.25 0
-0.5 -0.25 0
-0.625 -0.125 0
-0.5 -0.125 0
-0.5 -0.25 0
-0.375 -0.25 0
-0.5 -0.125 0
-0.375 -0.125 0
-0.375 -0.25 0
-0.25 -0.25 0
-0.375 -0.125 0
-0.25 -0.125 0
-0.25 -0.25 0
-0.125 -0.25 0
-0.25 -0.125 0
-0.125 -0.125 0
0.375 -0.25 0
0.5 -0.25 0
0.375 -0.125 0
0.5 -0.125 0
0.5 -0.25 0
0.625 -0.25 0
0.5 -0.125 0
0.625 -0.125 0
0.625 -0.25 0
0.75 -0.25 0
0.625 -0.125 0
0.75 -0.125 0
0.75 -0.25 0
0.875 -0.25 0
0.75 -0.125 0
0.875 -0.125 0
0.875 -0.25 0
1 -0.25 0
0.875 -0.125 0
1 -0.125 0
-1 -0.125 0
-0.875 -0.125 0
-1 0 0
-0.875 0 0
-0.875 -0.125 0
-0.75 -0.125 0
-0.875 0 0
-0.75 0 0
-0.75 -0.125 0
-0.625 -0.125 0
-0.75 0 0
-0.625 0 0
-0.625 -0.125 0
-0.5 -0.125 0
-0.625 0 0
-0.5 0 0
-0.5 -0.125 0
-0.375 -0.125 0
-0.5 0 0
-0.375 0 0
-0.375 -0.125 0
-0.25 -0.125 0
-0.375 0 0
-0.25 0 0
-0.25 -0.125 0
-0.125 -0.125 0
-0.25 0 0
-0.125 0 0
0.375 -0.125 0
0.5 -0.125 0
0.375 0 0
0.5 0 0
0.5 -0.125 0
0.625 -0.125 0
0.5 0 0
0.625 0 0
0.625 -0.125 0
0.75 -0.125 0
0.625 0 0
0.75 0 0
0.75 -0.125 0
0.875 -0.125 0
0.75 0 0
0.875 0 0
0.875 -0.125 0
1 -0.125 0
0.875 0 0
1 0 0
-1 0 0
-0.875 0 0
-1 0.125 0
-0.875 0.125 0
-0.875 0 0
-0.75 0 0
-0.875 0.125 0
-0.75 0.125 0
-0.75 0 0
-0.625 0 0
-0.75 0.125 0
-0.625 0.125 0
-0.625 0 0
-0.5 0 0
-0.625 0.125 0
-0.5 0.125 0
-0.5 0 0
-0.375 0 0
-0.5 0.125 0
-0.375 0.125 0
-0.375 0 0
-0.25 0 0
-0.375 0.125 0
-0.25 0.125 0
-0.25 0 0
-0.125 0 0
-0.25 0.125 0
-0.125 0.125 0
0.375 0 0
0.5 0 0
0.375 0.125 0
0.5 0.125 0
0.5 0 0
0.625 0 0
0.5 0.125 0
0.625 0.125 0
0.625 0 0
0.75 0 0
0.625 0.125 0
0.75 0.125 0
0.75 0 0
0.875 0 0
0.75 0.125 0
0.875 0.125 0
0.875 0 0
1 0 0
0.875 0.125 0
1 0.125 0
-1 0.125 0
-0.875 0.125 0
-1 0.25 0
-0.875 0.25 0
-0.875 0.125 0
-0.75 0.125 0
-0.875 0.25 0
-0.75 0.25 0
-0.75 0.125 0
-0.625 0.125 0
-0.75 0.25 0
-0.625 0.25 0
-0.625 0.125 0
-0.5 0.125 0
-0.625 0.25 0
-0.5 0.25 0
-0.5 0.125 0
-0.375 0.125 0
-0.5 0.25 0
-0.375 0.25 0
-0.375 0.125 0
-0.25 0.125 0
-0.375 0.25 0
-0.25 0.25 0
-0.25 0.125 0
-0.125 0.125 0
-0.25 0.25 0
-0.125 0.25 0
0.375 0.125 0
0.5 0.125 0
0.375 0.25 0
0.5 0.25 0
0.5 0.125 0
0.625 0.125 0
0.5 0.25 0
0.625 0.25 0
0.625 0.125 0
0.75 0.125 0
0.625 0.25 0
0.75 0.25 0
0.75 0.125 0
0.875 0.125 0
0.75 0.25 0
0.875 0.25 0
0.875 0.125 0
1 0.125 0
0.875 0.25 0
1 0.25 0
-1 0.25 0
-0.875 0.25 0
-1 0.375 0
-0.875 0.375 0
-0.875 0.25 0
-0.75 0.25 0
-0.875 0.375 0
-0.75 0.375 0
-0.75 0.25 0
-0.625 0.25 0
-0.75 0.375 0
-0.625 0.375 0
-0.625 0.25 0
-0.5 0.25 0
-0.625 0.375 0
-0.5 0.375 0
-0.5 0.25 0
-0.375 0.25 0
-0.5 0.375 0
-0.375 0.375 0
-0.375 0.25 0
-0.25 0.25 0
-0.375 0.375 0
-0.25 0.375 0
-0.25 0.25 0
-0.125 0.25 0
-0.25 0.375 0
-0.125 0.375 0
0.25 0.25 0
0.375 0.25 0
0.25 0.375 0
0.375 0.375 0
0.375 0.25 0
0.5 0.25 0
0.375 0.375 0
0.5 0.375 0
0.5 0.25 0
0.625 0.25 0
0.5 0.375 0
0.625 0.375 0
0.625 0.25 0
0.75 0.25 0
0.625 0.375 0
0.75 0.375 0
0.75 0.25 0
0.875 0.25 0
0.75 0.375 0
0.875 0.375 0
0.875 0.25 0
1 0.25 0
0.875 0.375 0
1 0.375 0
-1 0.375 0
-0.875 0.375 0
-1 0.5 0
-0.875 0.5 0
-0.875 0.375 0
-0.75 0.375 0
-0.875 0.5 0
-0.75 0.5 0
-0.75 0.375 0
-0.625 0.375 0
-0.75 0.5 0
-0.625 0.5 0
-0.625 0.375 0
-0.5 0.375 0
-0.625 0.5 0
-0.5 0.5 0
-0.5 0.375 0
-0.375 0.375 0
-0.5 0.5 0
-0.375 0.5 0
-0.375 0.375 0
-0.25 0.375 0
-0.375 0.5 0
-0.25 0.5 0
-0.25 0.375 0
-0.125 0.375 0
-0.25 0.5 0
-0.125 0.5 0
0.25 0.375 0
0.375 0.375 0
0.25 0.5 0
0.375 0.5 0
0.375 0.375 0
0.5 0.375 0
0.375 0.5 0
0.5 0.5 0
0.5 0.375 0
0.625 0.375 0
0.5 0.5 0
0.625 0.5 0
0.625 0.375 0
0.75 0.375 0
0.625 0.5 0
0.75 0.5 0
0.75 0.375 0
0.875 0.375 0
0.75 0.5 0
0.875 0.5 0
0.875 0.375 0
1 0.375 0
0.875 0.5 0
1 0.5 0
-1 0.5 0
-0.875 0.5 0
-1 0.625 0
-0.875 0.625 0
-0.875 0.5 0
-0.75 0.5 0
-0.875 0.625 0
-0.75 0.625 0
-0.75 0.5 0
-0.625 0.5 0
-0.75 0.625 0
-0.625 0.625 0
-0.625 0.5 0
-0.5 0.5 0
-0.625 0.625 0
-0.5 0.625 0
-0.5 0.5 0
-0.375 0.5 0
-0.5 0.625 0
-0.375 0.625 0
-0.375 0.5 0
-0.25 0.5 0
-0.375 0.625 0
-0.25 0.625 0
-0.25 0.5 0
-0.125 0.5 0
-0.25 0.625 0
-0.125 0.625 0
0.25 0.5 0
0.375 0.5 0
0.25 0.625 0
0.375 0.625 0
0.375 0.5 0
0.5 0.5 0
0.375 0.625 0
0.5 0.625 0
0.5 0.5 0
0.625 0.5 0
0.5 0.625 0
0.625 0.625 0
0.625 0.5 0
0.75 0.5 0
0.625 0.625 0
0.75 0.625 0
0.75 0.5 0
0.875 0.5 0
0.75 0.625 0
0.875 0.625 0
0.875 0.5 0
1 0.5 0
0.875 0.625 0
1 0.625 0
-1 0.625 0
-0.875 0.625 0
-1 0.75 0
-0.875 0.75 0
-0.875 0.625 0
-0.75 0.625 0
-0.875 0.75 0
-0.75 0.75 0
-0.75 0.625 0
-0.625 0.625 0
-0.75 0.75 0
-0.625 0.75 0
-0.625 0.625 0
-0.5 0.625 0
-0.625 0.75 0
-0.5 0.75 0
-0.5 0.625 0
-0.375 0.625 0
-0.5 0.75 0
-0.375 0.75 0
-0.375 0.625 0
-0.25 0.625 0
-0.375 0.75 0
-0.25 0.75 0
-0.25 0.625 0
-0.125 0.625 0
-0.25 0.75 0
-0.125 0.75 0
0.25 0.625 0
0.375 0.625 0
0.25 0.75 0
0.375 0.75 0
0.375 0.625 0
0.5 0.625 0
0.375 0.75 0
0.5 0.75 0
0.5 0.625 0
0.625 0.625 0
0.5 0.75 0
0.625 0.75 0
0.625 0.625 0
0.75 0.625 0
0.625 0.75 0
0.75 0.75 0
0.75 0.625 0
0.875 0.625 0
0.75 0.75 0
0.875 0.75 0
0.875 0.625 0
1 0.625 0
0.875 0.75 0
1 0.75 0
-1 0.75 0
-0.875 0.75 0
-1 0.875 0
-0.875 0.875 0
-0.875 0.75 0
-0.75 0.75 0
-0.875 0.875 0
-0.75 0.875 0
-0.75 0.75 0
-0.625 0.75 0
-0.75 0.875 0
-0.625 0.875 0
-0.625 0.75 0
-0.5 0.75 0
-0.625 0.875 0
-0.5 0.875 0
-0.5 0.75 0
-0.375 0.75 0
-0.5 0.875 0
-0.375 0.875 0
-0.375 0.75 0
-0.25 0.75 0
-0.375 0.875 0
-0.25 0.875 0
-0.25 0.75 0
-0.125 0.75 0
-0.25 0.875 0
-0.125 0.875 0
0.25 0.75 0
0.375 0.75 0
0.25 0.875 0
[...]
POINT_DATA 1648
SCALARS solution double 1
LOOKUP_TABLE default
6.12323e-17 6.12323e-17 0.19509 0.195089 6.12323e-17 6.12323e-17 0.195089 0.195088 6.12323e-17 6.12323e-17 0.195088 0.195087 6.12323e-17 6.12323e-17 0.195087 0.195086 6.12323e-17 6.12323e-17 0.195086 0.195084 6.12323e-17 6.12323e-17 0.195084 0.195082 6.12323e-17 6.12323e-17 0.195082 0.195079 0.03125 0.0861149 0.226332 0.281199 0.0861149 0.176777 0.281199 0.371863 0.176777 0.308816 0.371863 0.503903 0.308816 0.487139 0.503903 0.682228 0.487139 0.716177 0.682228 0.911266 0.716177 1 0.911266 1.19509 0.19509 0.195089 0.382683 0.382682 0.195089 0.195088 0.382682 0.38268 0.195088 0.195087 0.38268 0.382678 0.195087 0.195086 0.382678 0.382675 0.195086 0.195084 0.382675 0.382672 0.195084 0.195082 0.382672 0.382668 0.195082 0.195079 0.382668 0.382663 0.226332 0.281199 0.413919 0.468787 0.281199 0.371863 0.468787 0.559452 0.371863 0.503903 0.559452 0.691494 0.503903 0.682228 0.691494 0.869819 0.682228 0.911266 0.869819 1.09886 0.911266 1.19509 1.09886 1.38268 0.382683 0.382682 0.55557 0.555568 0.382682 0.38268 0.555568 0.555565 0.38268 0.382678 0.555565 0.555562 0.382678 0.382675 0.555562 0.555558 0.382675 0.382672 0.555558 0.555554 0.382672 0.382668 0.555554 0.555549 0.382668 0.382663 0.555549 0.555543 0.413919 0.468787 0.5868 0.641669 0.468787 0.559452 0.641669 0.732335 0.559452 0.691494 0.732335 0.864378 0.691494 0.869819 0.864378 1.0427 0.869819 1.09886 1.0427 1.27174 1.09886 1.38268 1.27174 1.55557 0.55557 0.555568 0.707107 0.707104 0.555568 0.555565 0.707104 0.7071 0.555565 0.555562 0.7071 0.707096 0.555562 0.555558 0.707096 0.707092 0.555558 0.555554 0.707092 0.707087 0.555554 0.555549 0.707087 0.707081 0.555549 0.555543 0.707081 0.707075 0.5868 0.641669 0.738333 0.793202 0.641669 0.732335 0.793202 0.883869 0.732335 0.864378 0.883869 1.01591 0.864378 1.0427 1.01591 1.19424 1.0427 1.27174 1.19424 1.42328 1.27174 1.55557 1.42328 1.70711 0.707107 0.707104 0.83147 0.831466 0.707104 0.7071 0.831466 0.831462 0.7071 0.707096 0.831462 0.831457 0.707096 0.707092 0.831457 0.831452 0.707092 0.707087 0.831452 0.831447 0.707087 0.707081 0.831447 0.831441 0.707081 0.707075 0.831441 0.831434 0.738333 0.793202 0.862694 0.917562 0.793202 0.883869 0.917562 1.00823 0.883869 1.01591 1.00823 1.14027 1.01591 1.19424 1.14027 1.3186 1.19424 1.42328 1.3186 1.54764 1.42328 1.70711 1.54764 1.83147 0.83147 0.831466 0.92388 0.923876 0.831466 0.831462 0.923876 0.923871 0.831462 0.831457 0.923871 0.923866 0.831457 0.831452 0.923866 0.923861 0.831452 0.831447 0.923861 0.923855 0.831447 0.831441 0.923855 0.923848 0.831441 0.831434 0.923848 0.923842 0.862694 0.917562 0.955114 1.00996 0.917562 1.00823 1.00996 1.10064 1.00823 1.14027 1.10064 1.23268 1.14027 1.3186 1.23268 1.41101 1.3186 1.54764 1.41101 1.64005 1.54764 1.83147 1.64005 1.92388 0.92388 0.923876 0.980785 0.980781 0.923876 0.923871 0.980781 0.980776 0.923871 0.923866 0.980776 0.980771 0.923866 0.923861 0.980771 0.980766 0.923861 0.923855 0.980766 0.98076 0.923855 0.923848 0.98076 0.980753 0.923848 0.923842 0.980753 0.980746 1.00996 1.10064 1.06688 1.15754 1.10064 1.23268 1.15754 1.28959 1.23268 1.41101 1.28959 1.46792 1.41101 1.64005 1.46792 1.69696 1.64005 1.92388 1.69696 1.98079 0.980785 0.980781 1 0.999996 0.980781 0.980776 0.999996 0.999991 0.980776 0.980771 0.999991 0.999986 0.980771 0.980766 0.999986 0.99998 0.980766 0.98076 0.99998 0.999974 0.98076 0.980753 0.999974 0.999967 0.980753 0.980746 0.999967 0.999961 1.06688 1.15754 1.08609 1.17676 1.15754 1.28959 1.17676 1.3088 1.28959 1.46792 1.3088 1.48713 1.46792 1.69696 1.48713 1.71617 1.69696 1.98079 1.71617 2 1 0.999996 0.980785 0.980781 0.999996 0.999991 0.980781 0.980776 0.999991 0.999986 0.980776 0.980771 0.999986 0.99998 0.980771 0.980766 0.99998 0.999974 0.980766 0.98076 0.999974 0.999967 0.98076 0.980753 0.999967 0.999961 0.980753 0.980746 1.08609 1.17676 1.06688 1.15754 1.17676 1.3088 1.15754 1.28959 1.3088 1.48713 1.28959 1.46792 1.48713 1.71617 1.46792 1.69696 1.71617 2 1.69696 1.98079 0.980785 0.980781 0.92388 0.923876 0.980781 0.980776 0.923876 0.923871 0.980776 0.980771 0.923871 0.923866 0.980771 0.980766 0.923866 0.923861 0.980766 0.98076 0.923861 0.923855 0.98076 0.980753 0.923855 0.923848 0.980753 0.980746 0.923848 0.923842 1.06688 1.15754 1.00996 1.10064 1.15754 1.28959 1.10064 1.23268 1.28959 1.46792 1.23268 1.41101 1.46792 1.69696 1.41101 1.64005 1.69696 1.98079 1.64005 1.92388 0.92388 0.923876 0.83147 0.831466 0.923876 0.923871 0.831466 0.831462 0.923871 0.923866 0.831462 0.831457 0.923866 0.923861 0.831457 0.831452 0.923861 0.923855 0.831452 0.831447 0.923855 0.923848 0.831447 0.831441 0.923848 0.923842 0.831441 0.831434 0.955114 1.00996 0.862694 0.917562 1.00996 1.10064 0.917562 1.00823 1.10064 1.23268 1.00823 1.14027 1.23268 1.41101 1.14027 1.3186 1.41101 1.64005 1.3186 1.54764 1.64005 1.92388 1.54764 1.83147 0.83147 0.831466 0.707107 0.707104 0.831466 0.831462 0.707104 0.7071 0.831462 0.831457 0.7071 0.707096 0.831457 0.831452 0.707096 0.707092 0.831452 0.831447 0.707092 0.707087 0.831447 0.831441 0.707087 0.707081 0.831441 0.831434 0.707081 0.707075 0.862694 0.917562 0.738333 0.793202 0.917562 1.00823 0.793202 0.883869 1.00823 1.14027 0.883869 1.01591 1.14027 1.3186 1.01591 1.19424 1.3186 1.54764 1.19424 1.42328 1.54764 1.83147 1.42328 1.70711 0.707107 0.707104 0.55557 0.555568 0.707104 0.7071 0.555568 0.555565 0.7071 0.707096 0.555565 0.555562 0.707096 0.707092 0.555562 0.555558 0.707092 0.707087 0.555558 0.555554 0.707087 0.707081 0.555554 0.555549 0.707081 0.707075 0.555549 0.555543 0.738333 0.793202 0.5868 0.641669 0.793202 0.883869 0.641669 0.732335 0.883869 1.01591 0.732335 0.864378 1.01591 1.19424 0.864378 1.0427 1.19424 1.42328 1.0427 1.27174 1.42328 1.70711 1.27174 1.55557 0.55557 0.555568 0.382683 0.382682 0.555568 0.555565 0.382682 0.38268 0.555565 0.555562 0.38268 0.382678 0.555562 0.555558 0.382678 0.382675 0.555558 0.555554 0.382675 0.382672 0.555554 0.555549 0.382672 0.382668 0.555549 0.555543 0.382668 0.382663 0.5868 0.641669 0.413919 0.468787 0.641669 0.732335 0.468787 0.559452 0.732335 0.864378 0.559452 0.691494 0.864378 1.0427 0.691494 0.869819 1.0427 1.27174 0.869819 1.09886 1.27174 1.55557 1.09886 1.38268 0.382683 0.382682 0.19509 0.195089 0.382682 0.38268 0.195089 0.195088 0.38268 0.382678 0.195088 0.195087 0.382678 0.382675 0.195087 0.195086 0.382675 0.382672 0.195086 0.195084 0.382672 0.382668 0.195084 0.195082 0.382668 0.382663 0.195082 0.195079 0.413919 0.468787 0.226332 0.281199 0.468787 0.559452 0.281199 0.371863 0.559452 0.691494 0.371863 0.503903 0.691494 0.869819 0.503903 0.682228 0.869819 1.09886 0.682228 0.911266 1.09886 1.38268 0.911266 1.19509 0.19509 0.195089 6.12323e-17 6.12323e-17 0.195089 0.195088 6.12323e-17 6.12323e-17 0.195088 0.195087 6.12323e-17 6.12323e-17 0.195087 0.195086 6.12323e-17 6.12323e-17 0.195086 0.195084 6.12323e-17 6.12323e-17 0.195084 0.195082 6.12323e-17 6.12323e-17 0.195082 0.195079 6.12323e-17 6.12323e-17 0.226332 0.281199 0.03125 0.0861149 0.281199 0.371863 0.0861149 0.176777 0.371863 0.503903 0.176777 0.308816 0.503903 0.682228 0.308816 0.487139 0.682228 0.911266 0.487139 0.716177 0.911266 1.19509 0.716177 1 6.12323e-17 6.12323e-17 0.0980107 0.0980088 6.12323e-17 6.12323e-17 0.0980088 0.0980052 0.0980107 0.0980088 0.195079 0.195075 0.0980088 0.0980052 0.195075 0.195071 6.12323e-17 0.000976562 0.0980052 0.0989855 0.000976562 0.00552427 0.0989855 0.103535 0.0980052 0.0989855 0.195071 0.196052 0.0989855 0.103535 0.196052 0.200602 0.00552427 0.0152231 0.103535 0.113235 0.0152231 0.03125 0.113235 0.129263 0.103535 0.113235 0.200602 0.210303 0.113235 0.129263 0.210303 0.226332 0.195079 0.195075 0.290267 0.290264 0.195075 0.195071 0.290264 0.29026 0.290267 0.290264 0.382663 0.382658 0.290264 0.29026 0.382658 0.382654 0.195071 0.196052 0.29026 0.291241 0.196052 0.200602 0.291241 0.295792 0.29026 0.291241 0.382654 0.383635 0.291241 0.295792 0.383635 0.388186 0.200602 0.210303 0.295792 0.305493 0.210303 0.226332 0.305493 0.321522 0.295792 0.305493 0.388186 0.397888 0.305493 0.321522 0.397888 0.413919 0.382663 0.382658 0.471371 0.471367 0.382658 0.382654 0.471367 0.471363 0.471371 0.471367 0.555543 0.555537 0.471367 0.471363 0.555537 0.555533 0.382654 0.383635 0.471363 0.472344 0.383635 0.388186 0.472344 0.476896 0.471363 0.472344 0.555533 0.556515 0.472344 0.476896 0.556515 0.561066 0.388186 0.397888 0.476896 0.486598 0.397888 0.413919 0.486598 0.502628 0.476896 0.486598 0.561066 0.570768 0.486598 0.502628 0.570768 0.5868 0.555543 0.555537 0.634362 0.634358 0.555537 0.555533 0.634358 0.634353 0.634362 0.634358 0.707075 0.707068 0.634358 0.634353 0.707068 0.707064 0.555533 0.556515 0.634353 0.635335 0.556515 0.561066 0.635335 0.639886 0.634353 0.635335 0.707064 0.708046 0.635335 0.639886 0.708046 0.712597 0.561066 0.570768 0.639886 0.649589 0.570768 0.5868 0.649589 0.665619 0.639886 0.649589 0.712597 0.7223 0.649589 0.665619 0.7223 0.738333 0.707075 0.707068 0.772974 0.77297 0.707068 0.707064 0.77297 0.772966 0.772974 0.77297 0.831434 0.831427 0.77297 0.772966 0.831427 0.831423 0.707064 0.708046 0.772966 0.773947 0.708046 0.712597 0.773947 0.778499 0.772966 0.773947 0.831423 0.832405 0.773947 0.778499 0.832405 0.836957 0.712597 0.7223 0.778499 0.788202 0.7223 0.738333 0.788202 0.804232 0.778499 0.788202 0.836957 0.84666 0.788202 0.804232 0.84666 0.862694 0.831434 0.831427 0.881882 0.881878 0.831427 0.831423 0.881878 0.881873 0.881882 0.881878 0.923842 0.923835 0.881878 0.881873 0.923835 0.92383 0.831423 0.832405 0.881873 0.882855 0.832405 0.836957 0.882855 0.887407 0.881873 0.882855 0.92383 0.924812 0.882855 0.887407 0.924812 0.929363 0.836957 0.84666 0.887407 0.89711 0.84666 0.862694 0.89711 0.913142 0.887407 0.89711 0.929363 0.939067 0.89711 0.913142 0.939067 0.955114 0.923842 0.923835 0.956899 0.956895 0.923835 0.92383 0.956895 0.95689 0.956899 0.956895 0.980746 0.980739 0.956895 0.95689 0.980739 0.980734 0.92383 0.924812 0.95689 0.957871 0.924812 0.929363 0.957871 0.962423 0.95689 0.957871 0.980734 0.981716 0.957871 0.962423 0.981716 0.986268 0.929363 0.939067 0.962423 0.972126 0.939067 0.955114 0.972126 0.988156 0.962423 0.972126 0.986268 0.99597 0.972126 0.988156 0.99597 1.012 0.955114 0.978446 0.988156 1.0115 0.978446 1.00996 1.0115 1.04304 0.988156 1.0115 1.012 1.03535 1.0115 1.04304 1.03535 1.06688 0.980746 0.980739 0.995142 0.995138 0.980739 0.980734 0.995138 0.995133 0.995142 0.995138 0.999961 0.999953 0.995138 0.995133 0.999953 0.999948 0.980734 0.981716 0.995133 0.996115 0.981716 0.986268 0.996115 1.00067 0.995133 0.996115 0.999948 1.00093 0.996115 1.00067 1.00093 1.00548 0.986268 0.99597 1.00067 1.01037 0.99597 1.012 1.01037 1.0264 1.00067 1.01037 1.00548 1.01518 1.01037 1.0264 1.01518 1.03122 1.012 1.03535 1.0264 1.04975 1.03535 1.06688 1.04975 1.08127 1.0264 1.04975 1.03122 1.05456 1.04975 1.08127 1.05456 1.08609 0.999961 0.999953 0.995142 0.995138 0.999953 0.999948 0.995138 0.995133 0.995142 0.995138 0.980746 0.980739 0.995138 0.995133 0.980739 0.980734 0.999948 1.00093 0.995133 0.996115 1.00093 1.00548 0.996115 1.00067 0.995133 0.996115 0.980734 0.981716 0.996115 1.00067 0.981716 0.986268 1.00548 1.01518 1.00067 1.01037 1.01518 1.03122 1.01037 1.0264 1.00067 1.01037 0.986268 0.99597 1.01037 1.0264 0.99597 1.012 1.03122 1.05456 1.0264 1.04975 1.05456 1.08609 1.04975 1.08127 1.0264 1.04975 1.012 1.03535 1.04975 1.08127 1.03535 1.06688 0.980746 0.980739 0.956899 0.956895 0.980739 0.980734 0.956895 0.95689 0.956899 0.956895 0.923842 0.923835 0.956895 0.95689 0.923835 0.92383 0.980734 0.981716 0.95689 0.957871 0.981716 0.986268 0.957871 0.962423 0.95689 0.957871 0.92383 0.924812 0.957871 0.962423 0.924812 0.929363 0.986268 0.99597 0.962423 0.972126 0.99597 1.012 0.972126 0.988156 0.962423 0.972126 0.929363 0.939067 0.972126 0.988156 0.939067 0.955114 1.012 1.03535 0.988156 1.0115 1.03535 1.06688 1.0115 1.04304 0.988156 1.0115 0.955114 0.978446 1.0115 1.04304 0.978446 1.00996 0.923842 0.923835 0.881882 0.881878 0.923835 0.92383 0.881878 0.881873 0.881882 0.881878 0.831434 0.831427 0.881878 0.881873 0.831427 0.831423 0.92383 0.924812 0.881873 0.882855 0.924812 0.929363 0.882855 0.887407 0.881873 0.882855 0.831423 0.832405 0.882855 0.887407 0.832405 0.836957 0.929363 0.939067 0.887407 0.89711 0.939067 0.955114 0.89711 0.913142 0.887407 0.89711 0.836957 0.84666 0.89711 0.913142 0.84666 0.862694 0.831434 0.831427 0.772974 0.77297 0.831427 0.831423 0.77297 0.772966 0.772974 0.77297 0.707075 0.707068 0.77297 0.772966 0.707068 0.707064 0.831423 0.832405 0.772966 0.773947 0.832405 0.836957 0.773947 0.778499 0.772966 0.773947 0.707064 0.708046 0.773947 0.778499 0.708046 0.712597 0.836957 0.84666 0.778499 0.788202 0.84666 0.862694 0.788202 0.804232 0.778499 0.788202 0.712597 0.7223 0.788202 0.804232 0.7223 0.738333 0.707075 0.707068 0.634362 0.634358 0.707068 0.707064 0.634358 0.634353 0.634362 0.634358 0.555543 0.555537 0.634358 0.634353 0.555537 0.555533 0.707064 0.708046 0.634353 0.635335 0.708046 0.712597 0.635335 0.639886 0.634353 0.635335 0.555533 0.556515 0.635335 0.639886 0.556515 0.561066 0.712597 0.7223 0.639886 0.649589 0.7223 0.738333 0.649589 0.665619 0.639886 0.649589 0.561066 0.570768 0.649589 0.665619 0.570768 0.5868 0.555543 0.555537 0.471371 0.471367 0.555537 0.555533 0.471367 0.471363 0.471371 0.471367 0.382663 0.382658 0.471367 0.471363 0.382658 0.382654 0.555533 0.556515 0.471363 0.472344 0.556515 0.561066 0.472344 0.476896 0.471363 0.472344 0.382654 0.383635 0.472344 0.476896 0.383635 0.388186 0.561066 0.570768 0.476896 0.486598 0.570768 0.5868 0.486598 0.502628 0.476896 0.486598 0.388186 0.397888 0.486598 0.502628 0.397888 0.413919 0.382663 0.382658 0.290267 0.290264 0.382658 0.382654 0.290264 0.29026 0.290267 0.290264 0.195079 0.195075 0.290264 0.29026 0.195075 0.195071 0.382654 0.383635 0.29026 0.291241 0.383635 0.388186 0.291241 0.295792 0.29026 0.291241 0.195071 0.196052 0.291241 0.295792 0.196052 0.200602 0.388186 0.397888 0.295792 0.305493 0.397888 0.413919 0.305493 0.321522 0.295792 0.305493 0.200602 0.210303 0.305493 0.321522 0.210303 0.226332 0.195079 0.195075 0.0980107 0.0980088 0.195075 0.195071 0.0980088 0.0980052 0.0980107 0.0980088 6.12323e-17 6.12323e-17 0.0980088 0.0980052 6.12323e-17 6.12323e-17 0.195071 0.196052 0.0980052 0.0989855 0.196052 0.200602 0.0989855 0.103535 0.0980052 0.0989855 6.12323e-17 0.000976562 0.0989855 0.103535 0.000976562 0.00552427 0.200602 0.210303 0.103535 0.113235 0.210303 0.226332 0.113235 0.129263 0.103535 0.113235 0.00552427 0.0152231 0.113235 0.129263 0.0152231 0.03125 
