# vtk DataFile Version 3.0
#This file was generated by the deal.II library on 2020/5/26 at 18:33:37
ASCII
DATASET UNSTRUCTURED_GRID

POINTS 1432 double
0.75 0 0
0.753902 0.245343 0
0.5 0 0
0.517661 0.266605 0
1 0 0
1 0.25 0
0.75 0 0
0.753902 0.245343 0
1 0.25 0
1 0.5 0
0.753902 0.245343 0
0.727933 0.483829 0
0.753902 0.245343 0
0.727933 0.483829 0
0.517661 0.266605 0
0.549078 0.445837 0
0.25 0 0
0.258927 0.170547 0
0.125 0 0
0.115702 0.193524 0
0.645326 0.721511 0
0.572663 0.860755 0
0.514315 0.66208 0
0.382158 0.83104 0
0.517144 -0.253727 0
0.508572 -0.126864 0
0.377008 -0.28072 0
0.376004 -0.14036 0
0.508572 -0.126864 0
0.5 -5e-09 0
0.376004 -0.14036 0
0.375 -3.75e-09 0
0.377008 -0.28072 0
0.376004 -0.14036 0
0.236872 -0.307713 0
0.243436 -0.153857 0
0.376004 -0.14036 0
0.375 -3.75e-09 0
0.243436 -0.153857 0
0.25 -2.5e-09 0
1 -0.75 0
0.823562 -0.731451 0
1 -0.875 0
0.786781 -0.865725 0
1 -0.875 0
0.786781 -0.865725 0
1 -1 0
0.75 -1 0
1 0.75 0
1 0.875 0
0.822663 0.735755 0
0.786332 0.867878 0
1 0.875 0
1 1 0
0.786332 0.867878 0
0.75 1 0
0.822663 0.735755 0
0.786332 0.867878 0
0.645326 0.721511 0
0.572663 0.860755 0
0.786332 0.867878 0
0.75 1 0
0.572663 0.860755 0
0.5 1 0
0.517144 -0.253727 0
0.377008 -0.28072 0
0.53149 -0.343959 0
0.416904 -0.394321 0
0.377008 -0.28072 0
0.236872 -0.307713 0
0.416904 -0.394321 0
0.302317 -0.444683 0
0.53149 -0.343959 0
0.416904 -0.394321 0
0.545836 -0.43419 0
0.456799 -0.507922 0
0.416904 -0.394321 0
0.302317 -0.444683 0
0.456799 -0.507922 0
0.367761 -0.581653 0
1 -0.5 0
0.86959 -0.486948 0
1 -0.625 0
0.846576 -0.609199 0
0.86959 -0.486948 0
0.739181 -0.473895 0
0.846576 -0.609199 0
0.693152 -0.593398 0
1 -0.625 0
0.846576 -0.609199 0
1 -0.75 0
0.823562 -0.731451 0
0.846576 -0.609199 0
0.693152 -0.593398 0
0.823562 -0.731451 0
0.647124 -0.712901 0
0.739181 -0.473895 0
0.642509 -0.454043 0
0.693152 -0.593398 0
0.574976 -0.55066 0
0.642509 -0.454043 0
0.545836 -0.43419 0
0.574976 -0.55066 0
0.456799 -0.507922 0
0.693152 -0.593398 0
0.574976 -0.55066 0
0.647124 -0.712901 0
0.507443 -0.647277 0
0.574976 -0.55066 0
0.456799 -0.507922 0
0.507443 -0.647277 0
0.367761 -0.581653 0
0.5 0 0
0.508831 0.133303 0
0.375 0 0
0.383879 0.151925 0
0.508831 0.133303 0
0.517661 0.266605 0
0.383879 0.151925 0
0.392758 0.30385 0
0.375 0 0
0.383879 0.151925 0
0.25 0 0
0.258927 0.170547 0
0.383879 0.151925 0
0.392758 0.30385 0
0.258927 0.170547 0
0.267855 0.341094 0
0.517661 0.266605 0
0.53337 0.356221 0
0.392758 0.30385 0
0.429475 0.414046 0
0.53337 0.356221 0
0.549078 0.445837 0
0.429475 0.414046 0
0.466191 0.524243 0
0.392758 0.30385 0
0.429475 0.414046 0
0.267855 0.341094 0
0.325579 0.471871 0
0.429475 0.414046 0
0.466191 0.524243 0
0.325579 0.471871 0
0.383304 0.602648 0
1 -0.25 0
1 -0.125 0
0.877673 -0.245525 0
0.876337 -0.122763 0
1 -0.125 0
1 -1e-08 0
0.876337 -0.122763 0
0.875 -8.75e-09 0
0.877673 -0.245525 0
0.876337 -0.122763 0
0.755346 -0.24105 0
0.752673 -0.120525 0
0.876337 -0.122763 0
0.875 -8.75e-09 0
0.752673 -0.120525 0
0.75 -7.5e-09 0
0.755346 -0.24105 0
0.752673 -0.120525 0
0.636245 -0.247389 0
0.630623 -0.123694 0
0.752673 -0.120525 0
0.75 -7.5e-09 0
0.630623 -0.123694 0
0.625 -6.25e-09 0
0.636245 -0.247389 0
0.630623 -0.123694 0
0.517144 -0.253727 0
0.508572 -0.126864 0
0.630623 -0.123694 0
0.625 -6.25e-09 0
0.508572 -0.126864 0
0.5 -5e-09 0
0.755346 -0.24105 0
0.636245 -0.247389 0
0.747264 -0.357473 0
0.639377 -0.350716 0
0.636245 -0.247389 0
0.517144 -0.253727 0
0.639377 -0.350716 0
0.53149 -0.343959 0
0.747264 -0.357473 0
0.639377 -0.350716 0
0.739181 -0.473895 0
0.642509 -0.454043 0
0.639377 -0.350716 0
0.53149 -0.343959 0
0.642509 -0.454043 0
0.545836 -0.43419 0
1 -0.25 0
0.877673 -0.245525 0
1 -0.375 0
0.873632 -0.366236 0
0.877673 -0.245525 0
0.755346 -0.24105 0
0.873632 -0.366236 0
0.747264 -0.357473 0
1 -0.375 0
0.873632 -0.366236 0
1 -0.5 0
0.86959 -0.486948 0
0.873632 -0.366236 0
0.747264 -0.357473 0
0.86959 -0.486948 0
0.739181 -0.473895 0
0.727933 0.483829 0
0.68663 0.60267 0
0.638506 0.464833 0
0.57641 0.563456 0
0.68663 0.60267 0
0.645326 0.721511 0
0.57641 0.563456 0
0.514315 0.66208 0
0.638506 0.464833 0
0.57641 0.563456 0
0.549078 0.445837 0
0.466191 0.524243 0
0.57641 0.563456 0
0.514315 0.66208 0
0.466191 0.524243 0
0.383304 0.602648 0
1 0.5 0
1 0.625 0
0.863966 0.491914 0
0.843315 0.613835 0
1 0.625 0
1 0.75 0
0.843315 0.613835 0
0.822663 0.735755 0
0.863966 0.491914 0
0.843315 0.613835 0
0.727933 0.483829 0
0.68663 0.60267 0
0.843315 0.613835 0
0.822663 0.735755 0
0.68663 0.60267 0
0.645326 0.721511 0
-0.709417 -0.351034 0
-0.564126 -0.401551 0
-0.665427 -0.246851 0
-0.498141 -0.307776 0
-0.418835 -0.452068 0
-0.376626 -0.589051 0
-0.330855 -0.368701 0
-0.279391 -0.526526 0
-0.376626 -0.589051 0
-0.334417 -0.726034 0
-0.279391 -0.526526 0
-0.227927 -0.684351 0
-0.279391 -0.526526 0
-0.227927 -0.684351 0
-0.182156 -0.464002 0
-0.121437 -0.642668 0
-0.334417 -0.726034 0
-0.292209 -0.863017 0
-0.227927 -0.684351 0
-0.176464 -0.842175 0
-0.292209 -0.863017 0
-0.25 -1 0
-0.176464 -0.842175 0
-0.125 -1 0
-0.227927 -0.684351 0
-0.176464 -0.842175 0
-0.121437 -0.642668 0
-0.0607187 -0.821334 0
-0.176464 -0.842175 0
-0.125 -1 0
-0.0607187 -0.821334 0
-2.7528e-12 -1 0
-1 -0.5 0
-0.898699 -0.5297 0
-1 -0.375 0
-0.876704 -0.415108 0
-0.898699 -0.5297 0
-0.797397 -0.5594 0
-0.876704 -0.415108 0
-0.753407 -0.455217 0
-1 -0.375 0
-0.876704 -0.415108 0
-1 -0.25 0
-0.854709 -0.300517 0
-0.876704 -0.415108 0
-0.753407 -0.455217 0
-0.854709 -0.300517 0
-0.709417 -0.351034 0
-0.797397 -0.5594 0
-0.696096 -0.5891 0
-0.753407 -0.455217 0
-0.630111 -0.495325 0
-0.696096 -0.5891 0
-0.594794 -0.6188 0
-0.630111 -0.495325 0
-0.506814 -0.535434 0
-0.753407 -0.455217 0
-0.630111 -0.495325 0
-0.709417 -0.351034 0
-0.564126 -0.401551 0
-0.630111 -0.495325 0
-0.506814 -0.535434 0
-0.564126 -0.401551 0
-0.418835 -0.452068 0
-0.854709 -0.300517 0
-0.709417 -0.351034 0
-0.832714 -0.185925 0
-0.665427 -0.246851 0
-1 0.375 0
-0.852738 0.346316 0
-1 0.5 0
-0.866744 0.485532 0
-0.852738 0.346316 0
-0.705475 0.317631 0
-0.866744 0.485532 0
-0.733488 0.471064 0
-0.0850463 0.0553202 0
-0.0137617 0.10825 0
-0.109374 0.181974 0
-0.0275233 0.2165 0
-0.273075 0.112922 0
-0.191224 0.147448 0
-0.318534 0.276384 0
-0.226118 0.292506 0
-0.410951 0.260262 0
-0.318534 0.276384 0
-0.466976 0.442128 0
-0.363993 0.439846 0
-0.318534 0.276384 0
-0.226118 0.292506 0
-0.363993 0.439846 0
-0.261011 0.437564 0
-0.00300155 -0.296524 0
-0.122938 -0.29093 0
0.043719 -0.4201 0
-0.0692186 -0.442051 0
-0.122938 -0.29093 0
-0.242875 -0.285335 0
-0.0692186 -0.442051 0
-0.182156 -0.464002 0
0.043719 -0.4201 0
-0.0692186 -0.442051 0
0.0904396 -0.543675 0
-0.015499 -0.593172 0
-0.0692186 -0.442051 0
-0.182156 -0.464002 0
-0.015499 -0.593172 0
-0.121437 -0.642668 0
0.0904396 -0.543675 0
-0.015499 -0.593172 0
0.13716 -0.667251 0
0.0382207 -0.744292 0
-0.015499 -0.593172 0
-0.121437 -0.642668 0
0.0382207 -0.744292 0
-0.0607187 -0.821334 0
0.13716 -0.667251 0
0.0382207 -0.744292 0
0.183881 -0.790827 0
0.0919404 -0.895413 0
0.0382207 -0.744292 0
-0.0607187 -0.821334 0
0.0919404 -0.895413 0
-2.7528e-12 -1 0
-0.00300155 -0.296524 0
0.0289988 -0.222393 0
-0.122938 -0.29093 0
-0.0765787 -0.218197 0
0.0289988 -0.222393 0
0.0609992 -0.148262 0
-0.0765787 -0.218197 0
-0.0302191 -0.145465 0
-0.122938 -0.29093 0
-0.0765787 -0.218197 0
-0.242875 -0.285335 0
-0.182156 -0.214002 0
-0.0765787 -0.218197 0
-0.0302191 -0.145465 0
-0.182156 -0.214002 0
-0.121437 -0.142668 0
0.0609992 -0.148262 0
0.0929996 -0.0741311 0
-0.0302191 -0.145465 0
0.0161404 -0.0727325 0
0.0929996 -0.0741311 0
0.125 -1.25e-09 0
0.0161404 -0.0727325 0
0.0625 -6.25e-10 0
-0.0302191 -0.145465 0
0.0161404 -0.0727325 0
-0.121437 -0.142668 0
-0.0607187 -0.0713339 0
-0.594794 -0.6188 0
-0.571096 -0.7141 0
-0.506814 -0.535434 0
-0.473861 -0.651575 0
-0.571096 -0.7141 0
-0.547397 -0.8094 0
-0.473861 -0.651575 0
-0.440907 -0.767717 0
-0.506814 -0.535434 0
-0.473861 -0.651575 0
-0.418835 -0.452068 0
-0.376626 -0.589051 0
-0.473861 -0.651575 0
-0.440907 -0.767717 0
-0.376626 -0.589051 0
-0.334417 -0.726034 0
-0.547397 -0.8094 0
-0.523699 -0.9047 0
-0.440907 -0.767717 0
-0.407954 -0.883858 0
-0.523699 -0.9047 0
-0.5 -1 0
-0.407954 -0.883858 0
-0.375 -1 0
-0.440907 -0.767717 0
-0.407954 -0.883858 0
-0.334417 -0.726034 0
-0.292209 -0.863017 0
-0.407954 -0.883858 0
-0.375 -1 0
-0.292209 -0.863017 0
-0.25 -1 0
-1 -0.5 0
-1 -0.625 0
-0.898699 -0.5297 0
-0.892774 -0.647275 0
-1 -0.625 0
-1 -0.75 0
-0.892774 -0.647275 0
-0.886849 -0.76485 0
-0.898699 -0.5297 0
-0.892774 -0.647275 0
-0.797397 -0.5594 0
-0.785548 -0.66955 0
-0.892774 -0.647275 0
-0.886849 -0.76485 0
-0.785548 -0.66955 0
-0.773699 -0.7797 0
-1 -0.75 0
-1 -0.875 0
-0.886849 -0.76485 0
-0.880925 -0.882425 0
-1 -0.875 0
-1 -1 0
-0.880925 -0.882425 0
-0.875 -1 0
-0.886849 -0.76485 0
-0.880925 -0.882425 0
-0.773699 -0.7797 0
-0.761849 -0.88985 0
-0.880925 -0.882425 0
-0.875 -1 0
-0.761849 -0.88985 0
-0.75 -1 0
-0.797397 -0.5594 0
-0.785548 -0.66955 0
-0.696096 -0.5891 0
-0.678322 -0.691825 0
-0.785548 -0.66955 0
-0.773699 -0.7797 0
-0.678322 -0.691825 0
-0.660548 -0.79455 0
-0.696096 -0.5891 0
-0.678322 -0.691825 0
-0.594794 -0.6188 0
-0.571096 -0.7141 0
-0.678322 -0.691825 0
-0.660548 -0.79455 0
-0.571096 -0.7141 0
-0.547397 -0.8094 0
-0.773699 -0.7797 0
-0.761849 -0.88985 0
-0.660548 -0.79455 0
-0.642774 -0.897275 0
-0.761849 -0.88985 0
-0.75 -1 0
-0.642774 -0.897275 0
-0.625 -1 0
-0.660548 -0.79455 0
-0.642774 -0.897275 0
-0.547397 -0.8094 0
-0.523699 -0.9047 0
-0.642774 -0.897275 0
-0.625 -1 0
-0.523699 -0.9047 0
-0.5 -1 0
-1 0.5 0
-0.866744 0.485532 0
-1 0.625 0
-0.868808 0.614149 0
-0.866744 0.485532 0
-0.733488 0.471064 0
-0.868808 0.614149 0
-0.737616 0.603298 0
-1 0.625 0
-0.868808 0.614149 0
-1 0.75 0
-0.870872 0.742766 0
-0.868808 0.614149 0
-0.737616 0.603298 0
-0.870872 0.742766 0
-0.741744 0.735532 0
-0.733488 0.471064 0
-0.600232 0.456596 0
-0.737616 0.603298 0
-0.606424 0.592447 0
-0.600232 0.456596 0
[...]
POINT_DATA 1432
SCALARS solution_0 double 1
LOOKUP_TABLE default
0.463219 0.520167 0.371456 0.493775 0.541768 0.584763 0.463219 0.520167 0.584763 0.698484 0.520167 0.671178 0.520167 0.671178 0.493775 0.643269 0.254684 0.380961 0.174621 0.442586 0.864182 0.991191 0.836702 1.01763 -0.616351 -0.465936 -0.659543 -0.457608 -0.465936 -0.357041 -0.457608 -0.305275 -0.659543 -0.457608 -0.734121 -0.473433 -0.457608 -0.305275 -0.473433 -0.244801 -1.12991 -1.13672 -1.2492 -1.28115 -1.2492 -1.28115 -1.36642 -1.42199 0.851725 0.934634 0.855127 0.957518 0.934634 1.0187 0.957518 1.05968 0.855127 0.957518 0.864182 0.991191 0.957518 1.05968 0.991191 1.1244 -0.616351 -0.659543 -0.7297 -0.811558 -0.659543 -0.734121 -0.811558 -0.911865 -0.7297 -0.811558 -0.841132 -0.950413 -0.811558 -0.911865 -0.950413 -1.06798 -0.89252 -0.879572 -1.01019 -1.00677 -0.879572 -0.86982 -1.00677 -1.0074 -1.01019 -1.00677 -1.12991 -1.13672 -1.00677 -1.0074 -1.13672 -1.14828 -0.86982 -0.854173 -1.0074 -0.97746 -0.854173 -0.841132 -0.97746 -0.950413 -1.0074 -0.97746 -1.14828 -1.10631 -0.97746 -0.950413 -1.10631 -1.06798 0.371456 0.403209 0.3176 0.381391 0.403209 0.493775 0.381391 0.520983 0.3176 0.381391 0.254684 0.380961 0.381391 0.520983 0.380961 0.578534 0.493775 0.567012 0.520983 0.624798 0.567012 0.643269 0.624798 0.72266 0.520983 0.624798 0.578534 0.702585 0.624798 0.72266 0.702585 0.813785 -0.677977 -0.590067 -0.649045 -0.552331 -0.590067 -0.520744 -0.552331 -0.484227 -0.649045 -0.552331 -0.624754 -0.518644 -0.552331 -0.484227 -0.518644 -0.445243 -0.624754 -0.518644 -0.616629 -0.491197 -0.518644 -0.445243 -0.491197 -0.403167 -0.616629 -0.491197 -0.616351 -0.465936 -0.491197 -0.403167 -0.465936 -0.357041 -0.624754 -0.616629 -0.743107 -0.733872 -0.616629 -0.616351 -0.733872 -0.7297 -0.743107 -0.733872 -0.86982 -0.854173 -0.733872 -0.7297 -0.854173 -0.841132 -0.677977 -0.649045 -0.780345 -0.759672 -0.649045 -0.624754 -0.759672 -0.743107 -0.780345 -0.759672 -0.89252 -0.879572 -0.759672 -0.743107 -0.879572 -0.86982 0.671178 0.763942 0.656185 0.741871 0.763942 0.864182 0.741871 0.836702 0.656185 0.741871 0.643269 0.72266 0.741871 0.836702 0.72266 0.813785 0.698484 0.772052 0.682746 0.765563 0.772052 0.851725 0.765563 0.855127 0.682746 0.765563 0.671178 0.763942 0.765563 0.855127 0.763942 0.864182 -0.73691 -0.864412 -0.560754 -0.721972 -0.989888 -1.19453 -0.884985 -1.13207 -1.19453 -1.37077 -1.13207 -1.33353 -1.13207 -1.33353 -1.06356 -1.28599 -1.37077 -1.52644 -1.33353 -1.50658 -1.52644 -1.6665 -1.50658 -1.66007 -1.33353 -1.50658 -1.28599 -1.47382 -1.50658 -1.66007 -1.47382 -1.64183 -0.891082 -0.965567 -0.699717 -0.797106 -0.965567 -1.03835 -0.797106 -0.89484 -0.699717 -0.797106 -0.497499 -0.613895 -0.797106 -0.89484 -0.613895 -0.73691 -1.03835 -1.10967 -0.89484 -0.99246 -1.10967 -1.17886 -0.99246 -1.08745 -0.89484 -0.99246 -0.73691 -0.864412 -0.99246 -1.08745 -0.864412 -0.989888 -0.613895 -0.73691 -0.414951 -0.560754 0.522904 0.526459 0.696491 0.719731 0.526459 0.526116 0.719731 0.740274 0.230145 0.362586 0.497348 0.544999 0.285749 0.402393 0.586113 0.639139 0.527323 0.586113 0.77831 0.801546 0.586113 0.639139 0.801546 0.818394 -0.818991 -0.815525 -0.980947 -1.03647 -0.815525 -0.770547 -1.03647 -1.06356 -0.980947 -1.03647 -1.12354 -1.21414 -1.03647 -1.06356 -1.21414 -1.28599 -1.12354 -1.21414 -1.2541 -1.37108 -1.21414 -1.28599 -1.37108 -1.47382 -1.2541 -1.37108 -1.37629 -1.51597 -1.37108 -1.47382 -1.51597 -1.64183 -0.818991 -0.685543 -0.815525 -0.697143 -0.685543 -0.521652 -0.697143 -0.558446 -0.815525 -0.697143 -0.770547 -0.655652 -0.697143 -0.558446 -0.655652 -0.523086 -0.521652 -0.320563 -0.558446 -0.368778 -0.320563 -0.167844 -0.368778 -0.11508 -0.558446 -0.368778 -0.523086 -0.35638 -1.17886 -1.30861 -1.08745 -1.25309 -1.30861 -1.42866 -1.25309 -1.40168 -1.08745 -1.25309 -0.989888 -1.19453 -1.25309 -1.40168 -1.19453 -1.37077 -1.42866 -1.54058 -1.40168 -1.53673 -1.54058 -1.64636 -1.53673 -1.6614 -1.40168 -1.53673 -1.37077 -1.52644 -1.53673 -1.6614 -1.52644 -1.6665 -0.891082 -1.0699 -0.965567 -1.13321 -1.0699 -1.23584 -1.13321 -1.28823 -0.965567 -1.13321 -1.03835 -1.19406 -1.13321 -1.28823 -1.19406 -1.33793 -1.23584 -1.3895 -1.28823 -1.43175 -1.3895 -1.53193 -1.43175 -1.56458 -1.28823 -1.43175 -1.33793 -1.47137 -1.43175 -1.56458 -1.47137 -1.59571 -1.03835 -1.19406 -1.10967 -1.25275 -1.19406 -1.33793 -1.25275 -1.38499 -1.10967 -1.25275 -1.17886 -1.30861 -1.25275 -1.38499 -1.30861 -1.42866 -1.33793 -1.47137 -1.38499 -1.50798 -1.47137 -1.59571 -1.50798 -1.62366 -1.38499 -1.50798 -1.42866 -1.54058 -1.50798 -1.62366 -1.54058 -1.64636 0.696491 0.719731 0.854812 0.881313 0.719731 0.740274 0.881313 0.904868 0.854812 0.881313 0.998561 1.02606 0.881313 0.904868 1.02606 1.05046 0.740274 0.759898 0.904868 0.925929 0.759898 0.77831 0.925929 0.943368 0.904868 0.925929 1.05046 1.07122 0.925929 0.943368 1.07122 1.08678 0.998561 1.02606 1.12912 1.15668 1.02606 1.05046 1.15668 1.18113 1.12912 1.15668 1.24813 1.27588 1.15668 1.18113 1.27588 1.30049 1.05046 1.07122 1.18113 1.20116 1.07122 1.08678 1.20116 1.21517 1.18113 1.20116 1.30049 1.32023 1.20116 1.21517 1.32023 1.33311 0.402393 0.497348 0.639139 0.676208 0.497348 0.544999 0.676208 0.68487 0.639139 0.676208 0.818394 0.822576 0.676208 0.68487 0.822576 0.805935 -0.734121 -0.77582 -0.826393 -0.903407 -0.77582 -0.818991 -0.903407 -0.980947 -0.826393 -0.903407 -0.911865 -1.01872 -0.903407 -0.980947 -1.01872 -1.12354 -0.911865 -1.01872 -0.99206 -1.12541 -1.01872 -1.12354 -1.12541 -1.2541 -0.99206 -1.12541 -1.06798 -1.22563 -1.12541 -1.2541 -1.22563 -1.37629 0.77831 0.801546 0.943368 0.960509 0.801546 0.818394 0.960509 0.968767 0.943368 0.960509 1.08678 1.09872 0.960509 0.968767 1.09872 1.10064 -0.734121 -0.606903 -0.77582 -0.637763 -0.606903 -0.473433 -0.637763 -0.483378 -0.77582 -0.637763 -0.818991 -0.685543 -0.637763 -0.483378 -0.685543 -0.521652 -1.10631 -1.08656 -1.22608 -1.22479 -1.08656 -1.06798 -1.22479 -1.22563 -1.22608 -1.22479 -1.34508 -1.3603 -1.22479 -1.22563 -1.3603 -1.37629 -1.34508 -1.3603 -1.46215 -1.49046 -1.3603 -1.37629 -1.49046 -1.51597 -1.46215 -1.49046 -1.57695 -1.61318 -1.49046 -1.51597 -1.61318 -1.64183 0.887412 0.974874 0.978859 1.07969 0.974874 1.058 1.07969 1.17598 0.978859 1.07969 1.062 1.17621 1.07969 1.17598 1.17621 1.2841 1.01763 1.11132 1.0363 1.14347 1.11132 1.2063 1.14347 1.24753 1.0363 1.14347 1.058 1.17598 1.14347 1.24753 1.17598 1.2841 0.818394 0.822576 0.968767 0.963253 0.822576 0.805935 0.963253 0.939856 0.968767 0.963253 1.10064 1.08899 0.963253 0.939856 1.08899 1.062 1.08678 1.09872 1.21517 1.22305 1.09872 1.10064 1.22305 1.22052 1.21517 1.22305 1.33311 1.33707 1.22305 1.22052 1.33707 1.33044 1.10064 1.08899 1.22052 1.20507 1.08899 1.062 1.20507 1.17621 1.22052 1.20507 1.33044 1.31252 1.20507 1.17621 1.31252 1.2841 -0.473433 -0.340685 -0.483378 -0.323002 -0.340685 -0.244801 -0.323002 -0.209308 -0.483378 -0.323002 -0.521652 -0.320563 -0.323002 -0.209308 -0.320563 -0.167844 -1.14828 -1.12696 -1.23507 -1.22955 -1.12696 -1.10631 -1.22955 -1.22608 -1.23507 -1.22955 -1.32179 -1.33207 -1.22955 -1.22608 -1.33207 -1.34508 -1.32179 -1.33207 -1.40843 -1.43421 -1.33207 -1.34508 -1.43421 -1.46215 -1.40843 -1.43421 -1.49579 -1.53668 -1.43421 -1.46215 -1.53668 -1.57695 0.380961 0.480962 0.400559 0.520533 0.480962 0.578534 0.520533 0.630798 0.400559 0.520533 0.442586 0.574426 0.520533 0.630798 0.574426 0.692272 0.174621 0.278841 0.119726 0.314704 0.278841 0.442586 0.314704 0.493485 0.119726 0.314704 0 0.362586 0.314704 0.493485 0.362586 0.544999 0.442586 0.574426 0.493485 0.634108 0.574426 0.692272 0.634108 0.754175 0.493485 0.634108 0.544999 0.68487 0.634108 0.754175 0.68487 0.805935 0.578534 0.64252 0.630798 0.71498 0.64252 0.702585 0.71498 0.792854 0.630798 0.71498 0.692272 0.793964 0.71498 0.792854 0.793964 0.887412 0.702585 0.759501 0.792854 0.86592 0.759501 0.813785 0.86592 0.935277 0.792854 0.86592 0.887412 0.974874 0.86592 0.935277 0.974874 1.058 0.692272 0.793964 0.754175 0.871307 0.793964 0.887412 0.871307 0.978859 0.754175 0.871307 0.805935 0.939856 0.871307 0.978859 0.939856 1.062 0.991191 1.0568 1.00252 1.08204 1.0568 1.1244 1.08204 1.16418 1.00252 1.08204 1.01763 1.11132 1.08204 1.16418 1.11132 1.2063 0.836702 0.925575 0.824567 0.928887 0.925575 1.01763 0.928887 1.0363 0.824567 0.928887 0.813785 0.935277 0.928887 1.0363 0.935277 1.058 -1.13672 -1.14144 -1.20908 -1.22066 -1.14144 -1.14828 -1.22066 -1.23507 -1.20908 -1.22066 -1.28115 -1.29972 -1.22066 -1.23507 -1.29972 -1.32179 -1.28115 -1.29972 -1.35219 -1.37838 -1.29972 -1.32179 -1.37838 -1.40843 -1.35219 -1.37838 -1.42199 -1.45698 -1.37838 -1.40843 -1.45698 -1.49579 -0.362151 -0.456184 -0.197781 -0.276164 -0.456184 -0.558628 -0.276164 -0.365642 -0.197781 -0.276164 -0.0339512 -0.0925475 -0.276164 -0.365642 -0.0925475 -0.160869 -0.558628 -0.665943 -0.365642 -0.46647 -0.665943 -0.770547 -0.46647 -0.575345 -0.365642 -0.46647 -0.160869 -0.241839 -0.46647 -0.575345 -0.241839 -0.338772 -0.160869 -0.241839 0.0405734 -0.01128 -0.241839 -0.338772 -0.01128 -0.0748665 0.0405734 -0.01128 0.224327 0.198327 -0.01128 -0.0748665 0.198327 0.169519 -0.201754 -0.277443 -0.0687153 -0.129089 -0.277443 -0.362151 -0.129089 -0.197781 -0.0687153 -0.129089 0.06173 0.0170376 -0.129089 -0.197781 0.0170376 -0.0339512 -0.0339512 -0.0925475 0.123284 0.0847354 -0.0925475 -0.160869 0.0847354 0.0405734 0.123284 0.0847354 0.269731 0.248032 0.0847354 0.0405734 0.248032 0.224327 0.224327 0.198327 0.385303 0.376067 0.198327 0.169519 0.376067 0.367315 0.385303 0.376067 0.525482 0.525871 0.376067 0.367315 0.525871 0.527323 -0.655652 -0.592509 -0.45416 -0.383597 -0.592509 -0.523086 -0.383597 -0.301773 -0.45416 -0.383597 -0.201324 -0.116714 -0.383597 -0.301773 -0.116714 -0.0162815 -0.523086 -0.447017 -0.301773 -0.20076 -0.447017 -0.35638 -0.20076 -0.0637432 -0.301773 -0.20076 -0.0162815 0.102665 -0.20076 -0.0637432 0.102665 0.230145 -0.864412 -0.928038 -0.795332 -0.867952 -0.928038 -0.989888 -0.867952 -0.938399 -0.795332 -0.867952 -0.721972 -0.804679 -0.867952 -0.938399 -0.804679 -0.884985 -0.560754 -0.639974 -0.464521 -0.551467 -0.639974 -0.721972 -0.551467 -0.643464 -0.464521 -0.551467 -0.362151 -0.456184 -0.551467 -0.643464 -0.456184 -0.558628 -0.721972 -0.804679 -0.643464 -0.737633 -0.804679 -0.884985 -0.737633 -0.82887 -0.643464 -0.737633 -0.558628 -0.665943 -0.737633 -0.82887 -0.665943 -0.770547 -0.0754658 -0.134483 0.0298994 -0.0157549 -0.134483 -0.201754 -0.0157549 -0.0687153 0.0298994 -0.0157549 0.133783 0.100716 -0.0157549 -0.0687153 0.100716 0.06173 0.133783 0.100716 0.235534 0.213753 0.100716 0.06173 0.213753 0.187507 0.235534 0.213753 0.334589 0.322517 0.213753 0.187507 0.322517 0.30723 0.06173 0.0170376 0.187507 0.157361 0.0170376 -0.0339512 0.157361 0.123284 0.187507 0.157361 0.30723 0.289504 0.157361 0.123284 0.289504 0.269731 0.269731 0.248032 0.403858 0.394673 0.248032 0.224327 0.394673 0.385303 0.403858 0.394673 0.526116 0.52565 0.394673 0.385303 0.52565 0.525482 0.526116 0.52565 0.637746 0.643363 0.52565 0.525482 0.643363 0.649142 0.637746 0.643363 0.740274 0.750184 0.643363 0.649142 0.750184 0.759898 0.525482 0.525871 0.649142 0.655157 0.525871 0.527323 0.655157 0.661258 0.649142 0.655157 0.759898 0.769371 0.655157 0.661258 0.769371 0.77831 -0.770547 -0.714866 -0.575345 -0.517414 -0.714866 -0.655652 -0.517414 -0.45416 -0.575345 -0.517414 -0.338772 -0.274175 -0.517414 -0.45416 -0.274175 -0.201324 -0.338772 -0.274175 -0.0748665 -0.00756194 -0.274175 -0.201324 -0.00756194 0.0665144 -0.0748665 -0.00756194 0.169519 0.226469 -0.00756194 0.0665144 0.226469 0.285749 -0.201324 -0.116714 0.0665144 0.147146 -0.116714 -0.0162815 0.147146 0.231758 0.0665144 0.147146 0.285749 0.344915 0.147146 0.231758 0.344915 0.402393 -0.884985 -1.01566 -0.82887 -0.973349 -1.01566 -1.13207 -0.973349 -1.09884 -0.82887 -0.973349 -0.770547 -0.929165 -0.973349 -1.09884 -0.929165 -1.06356 -0.497499 -0.554875 -0.393304 -0.4533 -0.554875 -0.613895 -0.4533 -0.516378 -0.393304 -0.4533 -0.287787 -0.348998 -0.4533 -0.516378 -0.348998 -0.414951 -0.287787 -0.348998 -0.181604 -0.242465 -0.348998 -0.414951 -0.242465 -0.309888 -0.181604 -0.242465 -0.0754658 -0.134483 -0.242465 -0.309888 -0.134483 -0.201754 -0.414951 -0.485602 -0.309888 -0.383857 -0.485602 -0.560754 -0.383857 -0.464521 -0.309888 -0.383857 -0.201754 -0.277443 -0.383857 -0.464521 -0.277443 -0.362151 0.334589 0.322517 0.430491 0.426506 0.322517 0.30723 0.426506 0.42025 0.430491 0.426506 0.522904 0.525521 0.426506 0.42025 0.525521 0.526459 0.30723 0.289504 0.42025 0.41251 0.289504 0.269731 0.41251 0.403858 0.42025 0.41251 0.526459 0.52649 0.41251 0.403858 0.52649 0.526116 -0.35638 -0.243814 -0.0637432 0.132256 -0.243814 0 0.132256 0.26279 -0.0637432 0.132256 0.230145 0.323417 0.132256 0.26279 0.323417 0.362586 -0.0162815 0.102665 0.231758 0.313375 0.102665 0.230145 0.313375 0.385106 0.231758 0.313375 0.402393 0.455059 0.313375 0.385106 0.455059 0.497348 0.169519 0.226469 0.367315 0.409552 0.226469 0.285749 0.409552 0.452058 0.367315 0.409552 0.527323 0.557186 0.409552 0.452058 0.557186 0.586113 -0.368778 -0.216417 -0.377751 -0.244654 -0.216417 -0.11508 -0.244654 -0.0789032 -0.377751 -0.244654 -0.35638 -0.243814 -0.244654 -0.0789032 -0.243814 0 
SCALARS solution_1 double 1
LOOKUP_TABLE default