# vtk DataFile Version 3.0
#This file was generated by the deal.II library on 2020/5/26 at 18:33:36
ASCII
DATASET UNSTRUCTURED_GRID

POINTS 208 double
-0.466976 0.442128 0
-0.0550467 0.433 0
-0.5 1 0
2.7528e-12 1 0
0.517144 -0.253727 0
0.236872 -0.307713 0
0.545836 -0.43419 0
0.367761 -0.581653 0
0.517144 -0.253727 0
0.5 -5e-09 0
0.236872 -0.307713 0
0.25 -2.5e-09 0
0.236872 -0.307713 0
0.25 -2.5e-09 0
-0.242875 -0.285335 0
0 0 0
0.75 0 0
0.753902 0.245343 0
0.5 0 0
0.517661 0.266605 0
1 0 0
1 0.25 0
0.75 0 0
0.753902 0.245343 0
1 0.25 0
1 0.5 0
0.753902 0.245343 0
0.727933 0.483829 0
0.753902 0.245343 0
0.727933 0.483829 0
0.517661 0.266605 0
0.549078 0.445837 0
0.647124 -0.712901 0
0.367761 -0.581653 0
0.5 -1 0
-2.7528e-12 -1 0
1 -0.75 0
0.647124 -0.712901 0
1 -1 0
0.5 -1 0
1 -0.5 0
0.739181 -0.473895 0
1 -0.75 0
0.647124 -0.712901 0
0.739181 -0.473895 0
0.545836 -0.43419 0
0.647124 -0.712901 0
0.367761 -0.581653 0
0.25 0 0
0.267855 0.341094 0
0 0 0
-0.0550467 0.433 0
0.5 0 0
0.517661 0.266605 0
0.25 0 0
0.267855 0.341094 0
0.517661 0.266605 0
0.549078 0.445837 0
0.267855 0.341094 0
0.383304 0.602648 0
0.267855 0.341094 0
0.383304 0.602648 0
-0.0550467 0.433 0
2.7528e-12 1 0
1 -0.25 0
1 -1e-08 0
0.755346 -0.24105 0
0.75 -7.5e-09 0
0.755346 -0.24105 0
0.75 -7.5e-09 0
0.517144 -0.253727 0
0.5 -5e-09 0
0.755346 -0.24105 0
0.517144 -0.253727 0
0.739181 -0.473895 0
0.545836 -0.43419 0
1 -0.25 0
0.755346 -0.24105 0
1 -0.5 0
0.739181 -0.473895 0
1 0.75 0
1 1 0
0.645326 0.721511 0
0.5 1 0
0.645326 0.721511 0
0.5 1 0
0.383304 0.602648 0
2.7528e-12 1 0
0.727933 0.483829 0
0.645326 0.721511 0
0.549078 0.445837 0
0.383304 0.602648 0
1 0.5 0
1 0.75 0
0.727933 0.483829 0
0.645326 0.721511 0
-0.594794 -0.6188 0
-0.547397 -0.8094 0
-0.418835 -0.452068 0
-0.334417 -0.726034 0
-0.547397 -0.8094 0
-0.5 -1 0
-0.334417 -0.726034 0
-0.25 -1 0
-0.418835 -0.452068 0
-0.334417 -0.726034 0
-0.242875 -0.285335 0
-0.121437 -0.642668 0
-0.334417 -0.726034 0
-0.25 -1 0
-0.121437 -0.642668 0
-2.7528e-12 -1 0
-1 -0.5 0
-0.797397 -0.5594 0
-1 -0.25 0
-0.709417 -0.351034 0
-0.797397 -0.5594 0
-0.594794 -0.6188 0
-0.709417 -0.351034 0
-0.418835 -0.452068 0
-1 -0.25 0
-0.709417 -0.351034 0
-1 2.7528e-12 0
-0.621437 -0.142668 0
-0.709417 -0.351034 0
-0.418835 -0.452068 0
-0.621437 -0.142668 0
-0.242875 -0.285335 0
-1 -0.5 0
-1 -0.75 0
-0.797397 -0.5594 0
-0.773699 -0.7797 0
-1 -0.75 0
-1 -1 0
-0.773699 -0.7797 0
-0.75 -1 0
-0.797397 -0.5594 0
-0.773699 -0.7797 0
-0.594794 -0.6188 0
-0.547397 -0.8094 0
-0.773699 -0.7797 0
-0.75 -1 0
-0.547397 -0.8094 0
-0.5 -1 0
-1 0.5 0
-0.733488 0.471064 0
-1 0.75 0
-0.741744 0.735532 0
-0.733488 0.471064 0
-0.466976 0.442128 0
-0.741744 0.735532 0
-0.483488 0.721064 0
-1 0.75 0
-0.741744 0.735532 0
-1 1 0
-0.75 1 0
-0.741744 0.735532 0
-0.483488 0.721064 0
-0.75 1 0
-0.5 1 0
-1 2.7528e-12 0
-0.621437 -0.142668 0
-1 0.25 0
-0.677463 0.164198 0
-0.621437 -0.142668 0
-0.242875 -0.285335 0
-0.677463 0.164198 0
-0.354925 0.0783963 0
-1 0.25 0
-0.677463 0.164198 0
-1 0.5 0
-0.733488 0.471064 0
-0.677463 0.164198 0
-0.354925 0.0783963 0
-0.733488 0.471064 0
-0.466976 0.442128 0
-0.242875 -0.285335 0
-0.121437 -0.142668 0
-0.354925 0.0783963 0
-0.191224 0.147448 0
-0.121437 -0.142668 0
0 0 0
-0.191224 0.147448 0
-0.0275233 0.2165 0
-0.354925 0.0783963 0
-0.191224 0.147448 0
-0.466976 0.442128 0
-0.261011 0.437564 0
-0.191224 0.147448 0
-0.0275233 0.2165 0
-0.261011 0.437564 0
-0.0550467 0.433 0
0.236872 -0.307713 0
-0.00300155 -0.296524 0
0.302317 -0.444683 0
0.0904396 -0.543675 0
-0.00300155 -0.296524 0
-0.242875 -0.285335 0
0.0904396 -0.543675 0
-0.121437 -0.642668 0
0.302317 -0.444683 0
0.0904396 -0.543675 0
0.367761 -0.581653 0
0.183881 -0.790827 0
0.0904396 -0.543675 0
-0.121437 -0.642668 0
0.183881 -0.790827 0
-2.7528e-12 -1 0

CELLS 52 260
4	0	1	3	2
4	4	5	7	6
4	8	9	11	10
4	12	13	15	14
4	16	17	19	18
4	20	21	23	22
4	24	25	27	26
4	28	29	31	30
4	32	33	35	34
4	36	37	39	38
4	40	41	43	42
4	44	45	47	46
4	48	49	51	50
4	52	53	55	54
4	56	57	59	58
4	60	61	63	62
4	64	65	67	66
4	68	69	71	70
4	72	73	75	74
4	76	77	79	78
4	80	81	83	82
4	84	85	87	86
4	88	89	91	90
4	92	93	95	94
4	96	97	99	98
4	100	101	103	102
4	104	105	107	106
4	108	109	111	110
4	112	113	115	114
4	116	117	119	118
4	120	121	123	122
4	124	125	127	126
4	128	129	131	130
4	132	133	135	134
4	136	137	139	138
4	140	141	143	142
4	144	145	147	146
4	148	149	151	150
4	152	153	155	154
4	156	157	159	158
4	160	161	163	162
4	164	165	167	166
4	168	169	171	170
4	172	173	175	174
4	176	177	179	178
4	180	181	183	182
4	184	185	187	186
4	188	189	191	190
4	192	193	195	194
4	196	197	199	198
4	200	201	203	202
4	204	205	207	206

CELL_TYPES 52
 9 9 9 9 9 9 9 9 9 9 9 9 9 9 9 9 9 9 9 9 9 9 9 9 9 9 9 9 9 9 9 9 9 9 9 9 9 9 9 9 9 9 9 9 9 9 9 9 9 9 9 9
POINT_DATA 208
SCALARS solution_0 double 1
LOOKUP_TABLE default
0.783592 0.789344 1.33311 1.2841 -0.609327 -0.713718 -0.835537 -1.0624 -0.609327 -0.357041 -0.713718 -0.244801 -0.713718 -0.244801 -0.763567 0 0.463219 0.518913 0.371456 0.488259 0.541768 0.584763 0.463219 0.518913 0.584763 0.698484 0.518913 0.669806 0.518913 0.669806 0.488259 0.640436 -1.14631 -1.0624 -1.49579 -1.64183 -1.12991 -1.14631 -1.36642 -1.49579 -0.89252 -0.867344 -1.12991 -1.14631 -0.867344 -0.835537 -1.14631 -1.0624 0.254684 0.5662 0 0.789344 0.371456 0.488259 0.254684 0.5662 0.488259 0.640436 0.5662 0.80789 0.5662 0.80789 0.789344 1.2841 -0.677977 -0.520744 -0.622289 -0.445243 -0.622289 -0.445243 -0.609327 -0.357041 -0.622289 -0.609327 -0.867344 -0.835537 -0.677977 -0.622289 -0.89252 -0.867344 0.851725 1.0187 0.862945 1.1244 0.862945 1.1244 0.80789 1.2841 0.669806 0.862945 0.640436 0.80789 0.698484 0.851725 0.669806 0.862945 -1.18069 -1.43021 -0.990217 -1.37143 -1.43021 -1.64636 -1.37143 -1.6665 -0.990217 -1.37143 -0.763567 -1.2803 -1.37143 -1.6665 -1.2803 -1.64183 -0.891082 -1.0393 -0.497499 -0.736729 -1.0393 -1.18069 -0.736729 -0.990217 -0.497499 -0.736729 -0.0754658 -0.360118 -0.736729 -0.990217 -0.360118 -0.763567 -0.891082 -1.23584 -1.0393 -1.3392 -1.23584 -1.53193 -1.3392 -1.59571 -1.0393 -1.3392 -1.18069 -1.43021 -1.3392 -1.59571 -1.43021 -1.64636 0.696491 0.743767 0.998561 1.05248 0.743767 0.783592 1.05248 1.08945 0.998561 1.05248 1.24813 1.30049 1.05248 1.08945 1.30049 1.33311 -0.0754658 -0.360118 0.334589 0.274373 -0.360118 -0.763567 0.274373 0.178569 0.334589 0.274373 0.696491 0.743767 0.274373 0.178569 0.743767 0.783592 -0.763567 -0.517336 0.178569 0.424437 -0.517336 0 0.424437 0.558192 0.178569 0.424437 0.783592 0.821388 0.424437 0.558192 0.821388 0.789344 -0.713718 -0.818658 -0.906538 -1.12031 -0.818658 -0.763567 -1.12031 -1.2803 -0.906538 -1.12031 -1.0624 -1.37317 -1.12031 -1.2803 -1.37317 -1.64183 
SCALARS solution_1 double 1
LOOKUP_TABLE default
2.74263 1.43147 3.12638 2.05486 -0.451567 0.0314729 -0.256029 0.201505 -0.451567 -0.782746 0.0314729 -0.536679 0.0314729 -0.536679 1.77258 0 0 0.275493 0 0.373992 0 0.212619 0 0.275493 0.212619 0.440563 0.275493 0.553428 0.275493 0.553428 0.373992 0.599183 -0.0752276 0.201505 0.444237 1.4824 -0.475211 -0.0752276 -0.234005 0.444237 -0.712312 -0.445686 -0.475211 -0.0752276 -0.445686 -0.256029 -0.0752276 0.201505 0 0.63902 0 1.43147 0 0.373992 0 0.63902 0.373992 0.599183 0.63902 0.937338 0.63902 0.937338 1.43147 2.05486 -0.93523 -1.14163 -0.714013 -0.976112 -0.714013 -0.976112 -0.451567 -0.782746 -0.714013 -0.451567 -0.445686 -0.256029 -0.93523 -0.714013 -0.712312 -0.445686 0.685741 0.94027 0.872579 1.31522 0.872579 1.31522 0.937338 2.05486 0.553428 0.872579 0.599183 0.937338 0.440563 0.685741 0.553428 0.872579 2.94992 2.8446 2.41427 2.2269 2.8446 2.75997 2.2269 2.11456 2.41427 2.2269 1.77258 1.52675 2.2269 2.11456 1.52675 1.4824 4.0155 3.49098 4.06097 3.26587 3.49098 2.94992 3.26587 2.41427 4.06097 3.26587 4.09789 3.03486 3.26587 2.41427 3.03486 1.77258 4.0155 3.97619 3.49098 3.42665 3.97619 3.9531 3.42665 3.37839 3.49098 3.42665 2.94992 2.8446 3.42665 3.37839 2.8446 2.75997 4.13824 3.47511 4.16723 3.57473 3.47511 2.74263 3.57473 2.93418 4.16723 3.57473 4.21505 3.68314 3.57473 2.93418 3.68314 3.12638 4.09789 3.03486 4.1202 3.24694 3.03486 1.77258 3.24694 2.22414 4.1202 3.24694 4.13824 3.47511 3.24694 2.22414 3.47511 2.74263 1.77258 1.15862 2.22414 1.60689 1.15862 0 1.60689 0.968585 2.22414 1.60689 2.74263 2.11221 1.60689 0.968585 2.11221 1.43147 0.0314729 0.767041 0.136104 0.781771 0.767041 1.77258 0.781771 1.52675 0.136104 0.781771 0.201505 0.836275 0.781771 1.52675 0.836275 1.4824 
