# vtk DataFile Version 3.0
#This file was generated by the deal.II library on 2020/5/26 at 18:33:37
ASCII
DATASET UNSTRUCTURED_GRID

POINTS 892 double
0.75 0 0
0.753902 0.245343 0
0.5 0 0
0.517661 0.266605 0
1 0 0
1 0.25 0
0.75 0 0
0.753902 0.245343 0
1 0.25 0
1 0.5 0
0.753902 0.245343 0
0.727933 0.483829 0
0.753902 0.245343 0
0.727933 0.483829 0
0.517661 0.266605 0
0.549078 0.445837 0
0.517661 0.266605 0
0.549078 0.445837 0
0.267855 0.341094 0
0.383304 0.602648 0
1 -0.25 0
1 -1e-08 0
0.755346 -0.24105 0
0.75 -7.5e-09 0
0.755346 -0.24105 0
0.75 -7.5e-09 0
0.517144 -0.253727 0
0.5 -5e-09 0
0.755346 -0.24105 0
0.517144 -0.253727 0
0.739181 -0.473895 0
0.545836 -0.43419 0
1 -0.25 0
0.755346 -0.24105 0
1 -0.5 0
0.739181 -0.473895 0
0.727933 0.483829 0
0.645326 0.721511 0
0.549078 0.445837 0
0.383304 0.602648 0
1 0.5 0
1 0.75 0
0.727933 0.483829 0
0.645326 0.721511 0
-0.261011 0.437564 0
-0.0550467 0.433 0
-0.255506 0.718782 0
-0.0275233 0.7165 0
-0.483488 0.721064 0
-0.255506 0.718782 0
-0.5 1 0
-0.25 1 0
-0.255506 0.718782 0
-0.0275233 0.7165 0
-0.25 1 0
2.7528e-12 1 0
0.243436 -0.153857 0
0.25 -2.5e-09 0
0.0609992 -0.148262 0
0.125 -1.25e-09 0
0.647124 -0.712901 0
0.507443 -0.647277 0
0.573562 -0.856451 0
0.378721 -0.823639 0
0.573562 -0.856451 0
0.378721 -0.823639 0
0.5 -1 0
0.25 -1 0
0.25 0 0
0.258927 0.170547 0
0.125 0 0
0.115702 0.193524 0
0.258927 0.170547 0
0.267855 0.341094 0
0.115702 0.193524 0
0.106404 0.387047 0
0.125 0 0
0.115702 0.193524 0
0 0 0
-0.0275233 0.2165 0
0.115702 0.193524 0
0.106404 0.387047 0
-0.0275233 0.2165 0
-0.0550467 0.433 0
0.267855 0.341094 0
0.325579 0.471871 0
0.106404 0.387047 0
0.149028 0.594186 0
0.325579 0.471871 0
0.383304 0.602648 0
0.149028 0.594186 0
0.191652 0.801324 0
0.106404 0.387047 0
0.149028 0.594186 0
-0.0550467 0.433 0
-0.0275233 0.7165 0
0.645326 0.721511 0
0.572663 0.860755 0
0.514315 0.66208 0
0.382158 0.83104 0
0.572663 0.860755 0
0.5 1 0
0.382158 0.83104 0
0.25 1 0
0.514315 0.66208 0
0.382158 0.83104 0
0.383304 0.602648 0
0.191652 0.801324 0
0.517144 -0.253727 0
0.508572 -0.126864 0
0.377008 -0.28072 0
0.376004 -0.14036 0
0.508572 -0.126864 0
0.5 -5e-09 0
0.376004 -0.14036 0
0.375 -3.75e-09 0
0.377008 -0.28072 0
0.376004 -0.14036 0
0.236872 -0.307713 0
0.243436 -0.153857 0
0.376004 -0.14036 0
0.375 -3.75e-09 0
0.243436 -0.153857 0
0.25 -2.5e-09 0
1 -0.75 0
0.823562 -0.731451 0
1 -0.875 0
0.786781 -0.865725 0
0.823562 -0.731451 0
0.647124 -0.712901 0
0.786781 -0.865725 0
0.573562 -0.856451 0
1 -0.875 0
0.786781 -0.865725 0
1 -1 0
0.75 -1 0
0.786781 -0.865725 0
0.573562 -0.856451 0
0.75 -1 0
0.5 -1 0
1 0.75 0
1 0.875 0
0.822663 0.735755 0
0.786332 0.867878 0
1 0.875 0
1 1 0
0.786332 0.867878 0
0.75 1 0
0.822663 0.735755 0
0.786332 0.867878 0
0.645326 0.721511 0
0.572663 0.860755 0
0.786332 0.867878 0
0.75 1 0
0.572663 0.860755 0
0.5 1 0
0.517144 -0.253727 0
0.377008 -0.28072 0
0.53149 -0.343959 0
0.416904 -0.394321 0
0.377008 -0.28072 0
0.236872 -0.307713 0
0.416904 -0.394321 0
0.302317 -0.444683 0
0.53149 -0.343959 0
0.416904 -0.394321 0
0.545836 -0.43419 0
0.456799 -0.507922 0
0.416904 -0.394321 0
0.302317 -0.444683 0
0.456799 -0.507922 0
0.367761 -0.581653 0
1 -0.5 0
0.86959 -0.486948 0
1 -0.625 0
0.846576 -0.609199 0
0.86959 -0.486948 0
0.739181 -0.473895 0
0.846576 -0.609199 0
0.693152 -0.593398 0
1 -0.625 0
0.846576 -0.609199 0
1 -0.75 0
0.823562 -0.731451 0
0.846576 -0.609199 0
0.693152 -0.593398 0
0.823562 -0.731451 0
0.647124 -0.712901 0
0.739181 -0.473895 0
0.642509 -0.454043 0
0.693152 -0.593398 0
0.574976 -0.55066 0
0.642509 -0.454043 0
0.545836 -0.43419 0
0.574976 -0.55066 0
0.456799 -0.507922 0
0.693152 -0.593398 0
0.574976 -0.55066 0
0.647124 -0.712901 0
0.507443 -0.647277 0
0.574976 -0.55066 0
0.456799 -0.507922 0
0.507443 -0.647277 0
0.367761 -0.581653 0
0.5 0 0
0.508831 0.133303 0
0.375 0 0
0.383879 0.151925 0
0.508831 0.133303 0
0.517661 0.266605 0
0.383879 0.151925 0
0.392758 0.30385 0
0.375 0 0
0.383879 0.151925 0
0.25 0 0
0.258927 0.170547 0
0.383879 0.151925 0
0.392758 0.30385 0
0.258927 0.170547 0
0.267855 0.341094 0
-0.709417 -0.351034 0
-0.564126 -0.401551 0
-0.665427 -0.246851 0
-0.498141 -0.307776 0
-0.564126 -0.401551 0
-0.418835 -0.452068 0
-0.498141 -0.307776 0
-0.330855 -0.368701 0
-0.665427 -0.246851 0
-0.498141 -0.307776 0
-0.621437 -0.142668 0
-0.432156 -0.214002 0
-0.498141 -0.307776 0
-0.330855 -0.368701 0
-0.432156 -0.214002 0
-0.242875 -0.285335 0
-1 2.7528e-12 0
-0.810719 -0.0713339 0
-1 0.125 0
-0.824725 0.0678826 0
-1 0.125 0
-0.824725 0.0678826 0
-1 0.25 0
-0.838731 0.207099 0
-0.824725 0.0678826 0
-0.64945 0.0107652 0
-0.838731 0.207099 0
-0.677463 0.164198 0
-0.677463 0.164198 0
-0.516194 0.121297 0
-0.705475 0.317631 0
-0.558213 0.288947 0
-0.705475 0.317631 0
-0.558213 0.288947 0
-0.733488 0.471064 0
-0.600232 0.456596 0
-0.558213 0.288947 0
-0.410951 0.260262 0
-0.600232 0.456596 0
-0.466976 0.442128 0
-0.242875 -0.285335 0
-0.182156 -0.214002 0
-0.2989 -0.10347 0
-0.227616 -0.0505397 0
-0.2989 -0.10347 0
-0.227616 -0.0505397 0
-0.354925 0.0783963 0
-0.273075 0.112922 0
-0.227616 -0.0505397 0
-0.156331 0.00239026 0
-0.273075 0.112922 0
-0.191224 0.147448 0
-0.418835 -0.452068 0
-0.376626 -0.589051 0
-0.330855 -0.368701 0
-0.279391 -0.526526 0
-0.376626 -0.589051 0
-0.334417 -0.726034 0
-0.279391 -0.526526 0
-0.227927 -0.684351 0
-0.330855 -0.368701 0
-0.279391 -0.526526 0
-0.242875 -0.285335 0
-0.182156 -0.464002 0
-0.279391 -0.526526 0
-0.227927 -0.684351 0
-0.182156 -0.464002 0
-0.121437 -0.642668 0
-0.334417 -0.726034 0
-0.292209 -0.863017 0
-0.227927 -0.684351 0
-0.176464 -0.842175 0
-0.292209 -0.863017 0
-0.25 -1 0
-0.176464 -0.842175 0
-0.125 -1 0
-0.227927 -0.684351 0
-0.176464 -0.842175 0
-0.121437 -0.642668 0
-0.0607187 -0.821334 0
-0.176464 -0.842175 0
-0.125 -1 0
-0.0607187 -0.821334 0
-2.7528e-12 -1 0
-1 -0.5 0
-0.898699 -0.5297 0
-1 -0.375 0
-0.876704 -0.415108 0
-0.898699 -0.5297 0
-0.797397 -0.5594 0
-0.876704 -0.415108 0
-0.753407 -0.455217 0
-1 -0.375 0
-0.876704 -0.415108 0
-1 -0.25 0
-0.854709 -0.300517 0
-0.876704 -0.415108 0
-0.753407 -0.455217 0
-0.854709 -0.300517 0
-0.709417 -0.351034 0
-0.797397 -0.5594 0
-0.696096 -0.5891 0
-0.753407 -0.455217 0
-0.630111 -0.495325 0
-0.696096 -0.5891 0
-0.594794 -0.6188 0
-0.630111 -0.495325 0
-0.506814 -0.535434 0
-0.753407 -0.455217 0
-0.630111 -0.495325 0
-0.709417 -0.351034 0
-0.564126 -0.401551 0
-0.630111 -0.495325 0
-0.506814 -0.535434 0
-0.564126 -0.401551 0
-0.418835 -0.452068 0
-1 -0.25 0
-0.854709 -0.300517 0
-1 -0.125 0
-0.832714 -0.185925 0
-0.854709 -0.300517 0
-0.709417 -0.351034 0
-0.832714 -0.185925 0
-0.665427 -0.246851 0
-1 -0.125 0
-0.832714 -0.185925 0
-1 2.7528e-12 0
-0.810719 -0.0713339 0
-0.832714 -0.185925 0
-0.665427 -0.246851 0
-0.810719 -0.0713339 0
-0.621437 -0.142668 0
-1 0.25 0
-0.838731 0.207099 0
-1 0.375 0
-0.852738 0.346316 0
-0.838731 0.207099 0
-0.677463 0.164198 0
-0.852738 0.346316 0
-0.705475 0.317631 0
-1 0.375 0
-0.852738 0.346316 0
-1 0.5 0
-0.866744 0.485532 0
-0.852738 0.346316 0
-0.705475 0.317631 0
-0.866744 0.485532 0
-0.733488 0.471064 0
-0.0607187 -0.0713339 0
0 0 0
-0.0850463 0.0553202 0
-0.0137617 0.10825 0
-0.156331 0.00239026 0
-0.0850463 0.0553202 0
-0.191224 0.147448 0
-0.109374 0.181974 0
-0.0850463 0.0553202 0
-0.0137617 0.10825 0
-0.109374 0.181974 0
-0.0275233 0.2165 0
-0.354925 0.0783963 0
-0.273075 0.112922 0
-0.410951 0.260262 0
-0.318534 0.276384 0
-0.273075 0.112922 0
-0.191224 0.147448 0
-0.318534 0.276384 0
-0.226118 0.292506 0
-0.410951 0.260262 0
-0.318534 0.276384 0
-0.466976 0.442128 0
-0.363993 0.439846 0
-0.318534 0.276384 0
-0.226118 0.292506 0
-0.363993 0.439846 0
-0.261011 0.437564 0
-0.00300155 -0.296524 0
-0.122938 -0.29093 0
0.043719 -0.4201 0
-0.0692186 -0.442051 0
-0.122938 -0.29093 0
-0.242875 -0.285335 0
-0.0692186 -0.442051 0
-0.182156 -0.464002 0
0.043719 -0.4201 0
-0.0692186 -0.442051 0
0.0904396 -0.543675 0
-0.015499 -0.593172 0
-0.0692186 -0.442051 0
-0.182156 -0.464002 0
-0.015499 -0.593172 0
-0.121437 -0.642668 0
0.0904396 -0.543675 0
-0.015499 -0.593172 0
0.13716 -0.667251 0
0.0382207 -0.744292 0
-0.015499 -0.593172 0
-0.121437 -0.642668 0
0.0382207 -0.744292 0
-0.0607187 -0.821334 0
0.13716 -0.667251 0
0.0382207 -0.744292 0
0.183881 -0.790827 0
0.0919404 -0.895413 0
0.0382207 -0.744292 0
-0.0607187 -0.821334 0
0.0919404 -0.895413 0
-2.7528e-12 -1 0
-0.00300155 -0.296524 0
0.0289988 -0.222393 0
-0.122938 -0.29093 0
-0.0765787 -0.218197 0
0.0289988 -0.222393 0
0.0609992 -0.148262 0
-0.0765787 -0.218197 0
-0.0302191 -0.145465 0
-0.122938 -0.29093 0
-0.0765787 -0.218197 0
-0.242875 -0.285335 0
-0.182156 -0.214002 0
-0.0765787 -0.218197 0
-0.0302191 -0.145465 0
-0.182156 -0.214002 0
-0.121437 -0.142668 0
0.0609992 -0.148262 0
0.0929996 -0.0741311 0
-0.0302191 -0.145465 0
0.0161404 -0.0727325 0
0.0929996 -0.0741311 0
0.125 -1.25e-09 0
0.0161404 -0.0727325 0
0.0625 -6.25e-10 0
-0.0302191 -0.145465 0
0.0161404 -0.0727325 0
-0.121437 -0.142668 0
-0.0607187 -0.0713339 0
0.0161404 -0.0727325 0
0.0625 -6.25e-10 0
-0.0607187 -0.0713339 0
0 0 0
-0.594794 -0.6188 0
-0.571096 -0.7141 0
-0.506814 -0.535434 0
-0.473861 -0.651575 0
-0.571096 -0.7141 0
-0.547397 -0.8094 0
-0.473861 -0.651575 0
-0.440907 -0.767717 0
-0.506814 -0.535434 0
-0.473861 -0.651575 0
-0.418835 -0.452068 0
-0.376626 -0.589051 0
-0.473861 -0.651575 0
-0.440907 -0.767717 0
-0.376626 -0.589051 0
-0.334417 -0.726034 0
-0.547397 -0.8094 0
-0.523699 -0.9047 0
-0.440907 -0.767717 0
-0.407954 -0.883858 0
-0.523699 -0.9047 0
-0.5 -1 0
-0.407954 -0.883858 0
-0.375 -1 0
-0.440907 -0.767717 0
-0.407954 -0.883858 0
-0.334417 -0.726034 0
-0.292209 -0.863017 0
-0.407954 -0.883858 0
-0.375 -1 0
-0.292209 -0.863017 0
-0.25 -1 0
-1 -0.5 0
-1 -0.625 0
-0.898699 -0.5297 0
-0.892774 -0.647275 0
-1 -0.625 0
-1 -0.75 0
-0.892774 -0.647275 0
-0.886849 -0.76485 0
-0.898699 -0.5297 0
-0.892774 -0.647275 0
-0.797397 -0.5594 0
-0.785548 -0.66955 0
-0.892774 -0.647275 0
-0.886849 -0.76485 0
-0.785548 -0.66955 0
-0.773699 -0.7797 0
[...]
POINT_DATA 892
SCALARS solution_0 double 1
LOOKUP_TABLE default
0.463219 0.519972 0.371456 0.493425 0.541768 0.584763 0.463219 0.519972 0.584763 0.698484 0.519972 0.670888 0.519972 0.670888 0.493425 0.642614 0.493425 0.642614 0.577417 0.812999 -0.677977 -0.520744 -0.624385 -0.445243 -0.624385 -0.445243 -0.61657 -0.357041 -0.624385 -0.61657 -0.869473 -0.840463 -0.677977 -0.624385 -0.89252 -0.869473 0.670888 0.863745 0.642614 0.812999 0.698484 0.851725 0.670888 0.863745 0.8189 0.80391 1.10077 1.06143 1.0874 1.10077 1.33311 1.33044 1.10077 1.06143 1.33044 1.2841 -0.470866 -0.244801 -0.522532 -0.167844 -1.14789 -1.10562 -1.32147 -1.3446 -1.32147 -1.3446 -1.49579 -1.57695 0.254684 0.379876 0.174621 0.436746 0.379876 0.577417 0.436746 0.6893 0.174621 0.436746 0 0.531128 0.436746 0.6893 0.531128 0.80391 0.577417 0.701464 0.6893 0.88621 0.701464 0.812999 0.88621 1.05751 0.6893 0.88621 0.80391 1.06143 0.863745 0.990891 0.83608 1.01691 0.990891 1.1244 1.01691 1.2063 0.83608 1.01691 0.812999 1.05751 -0.61657 -0.465592 -0.658529 -0.456786 -0.465592 -0.357041 -0.456786 -0.305275 -0.658529 -0.456786 -0.732639 -0.470866 -0.456786 -0.305275 -0.470866 -0.244801 -1.12991 -1.13657 -1.2492 -1.28099 -1.13657 -1.14789 -1.28099 -1.32147 -1.2492 -1.28099 -1.36642 -1.42199 -1.28099 -1.32147 -1.42199 -1.49579 0.851725 0.934634 0.854983 0.957522 0.934634 1.0187 0.957522 1.05968 0.854983 0.957522 0.863745 0.990891 0.957522 1.05968 0.990891 1.1244 -0.61657 -0.658529 -0.729049 -0.810613 -0.658529 -0.732639 -0.810613 -0.910714 -0.729049 -0.810613 -0.840463 -0.949591 -0.810613 -0.910714 -0.949591 -1.06708 -0.89252 -0.879524 -1.01019 -1.00666 -0.879524 -0.869473 -1.00666 -1.00701 -1.01019 -1.00666 -1.12991 -1.13657 -1.00666 -1.00701 -1.13657 -1.14789 -0.869473 -0.853724 -1.00701 -0.976872 -0.853724 -0.840463 -0.976872 -0.949591 -1.00701 -0.976872 -1.14789 -1.10562 -0.976872 -0.949591 -1.10562 -1.06708 0.371456 0.403013 0.3176 0.380873 0.403013 0.493425 0.380873 0.520438 0.3176 0.380873 0.254684 0.379876 0.380873 0.520438 0.379876 0.577417 -0.737367 -0.865042 -0.56124 -0.722637 -0.865042 -0.990493 -0.722637 -0.885493 -0.56124 -0.722637 -0.362492 -0.559209 -0.722637 -0.885493 -0.559209 -0.771242 -0.0754658 -0.201955 0.133783 0.0618253 0.133783 0.0618253 0.334589 0.307476 0.0618253 -0.0340681 0.307476 0.270152 0.270152 0.224857 0.526584 0.526205 0.526584 0.526205 0.740733 0.760439 0.526205 0.528037 0.760439 0.778995 -0.771242 -0.656432 -0.340492 -0.201921 -0.340492 -0.201921 0.170626 0.28805 -0.201921 -0.0199853 0.28805 0.407701 -0.990493 -1.19498 -0.885493 -1.13237 -1.19498 -1.37107 -1.13237 -1.33363 -0.885493 -1.13237 -0.771242 -1.0637 -1.13237 -1.33363 -1.0637 -1.28575 -1.37107 -1.5266 -1.33363 -1.50655 -1.5266 -1.6665 -1.50655 -1.66007 -1.33363 -1.50655 -1.28575 -1.47352 -1.50655 -1.66007 -1.47352 -1.64183 -0.891082 -0.96575 -0.699717 -0.797324 -0.96575 -1.03868 -0.797324 -0.895242 -0.699717 -0.797324 -0.497499 -0.614118 -0.797324 -0.895242 -0.614118 -0.737367 -1.03868 -1.11012 -0.895242 -0.992991 -1.11012 -1.17936 -0.992991 -1.08802 -0.895242 -0.992991 -0.737367 -0.865042 -0.992991 -1.08802 -0.865042 -0.990493 -0.497499 -0.614118 -0.287787 -0.415164 -0.614118 -0.737367 -0.415164 -0.56124 -0.287787 -0.415164 -0.0754658 -0.201955 -0.415164 -0.56124 -0.201955 -0.362492 0.334589 0.307476 0.522904 0.526742 0.307476 0.270152 0.526742 0.526584 0.522904 0.526742 0.696491 0.719985 0.526742 0.526584 0.719985 0.740733 -0.359812 0 0.225916 0.382838 -0.0199853 0.225916 0.407701 0.501613 0.225916 0.382838 0.501613 0.531128 0.170626 0.28805 0.528037 0.586838 0.28805 0.407701 0.586838 0.639489 0.528037 0.586838 0.778995 0.802175 0.586838 0.639489 0.802175 0.8189 -0.817561 -0.815425 -0.979688 -1.03587 -0.815425 -0.771242 -1.03587 -1.0637 -0.979688 -1.03587 -1.12247 -1.21344 -1.03587 -1.0637 -1.21344 -1.28575 -1.12247 -1.21344 -1.25322 -1.37046 -1.21344 -1.28575 -1.37046 -1.47352 -1.25322 -1.37046 -1.37561 -1.51559 -1.37046 -1.47352 -1.51559 -1.64183 -0.817561 -0.683685 -0.815425 -0.696573 -0.683685 -0.522532 -0.696573 -0.555539 -0.815425 -0.696573 -0.771242 -0.656432 -0.696573 -0.555539 -0.656432 -0.523344 -0.522532 -0.316727 -0.555539 -0.355887 -0.316727 -0.167844 -0.355887 -0.11508 -0.555539 -0.355887 -0.523344 -0.359812 -0.355887 -0.11508 -0.359812 0 -1.17936 -1.30907 -1.08802 -1.25358 -1.30907 -1.42904 -1.25358 -1.40207 -1.08802 -1.25358 -0.990493 -1.19498 -1.25358 -1.40207 -1.19498 -1.37107 -1.42904 -1.54082 -1.40207 -1.53698 -1.54082 -1.64636 -1.53698 -1.6614 -1.40207 -1.53698 -1.37107 -1.5266 -1.53698 -1.6614 -1.5266 -1.6665 -0.891082 -1.0699 -0.96575 -1.13339 -1.0699 -1.23584 -1.13339 -1.28841 -0.96575 -1.13339 -1.03868 -1.19439 -1.13339 -1.28841 -1.19439 -1.33822 -1.23584 -1.3895 -1.28841 -1.43188 -1.3895 -1.53193 -1.43188 -1.56458 -1.28841 -1.43188 -1.33822 -1.47157 -1.43188 -1.56458 -1.47157 -1.59571 -1.03868 -1.19439 -1.11012 -1.25317 -1.19439 -1.33822 -1.25317 -1.38535 -1.11012 -1.25317 -1.17936 -1.30907 -1.25317 -1.38535 -1.30907 -1.42904 -1.33822 -1.47157 -1.38535 -1.50822 -1.47157 -1.59571 -1.50822 -1.62366 -1.38535 -1.50822 -1.42904 -1.54082 -1.50822 -1.62366 -1.54082 -1.64636 0.696491 0.719985 0.854812 0.881549 0.719985 0.740733 0.881549 0.90529 0.854812 0.881549 0.998561 1.02627 0.881549 0.90529 1.02627 1.05082 0.740733 0.760439 0.90529 0.92647 0.760439 0.778995 0.92647 0.943918 0.90529 0.92647 1.05082 1.07168 0.92647 0.943918 1.07168 1.0874 0.998561 1.02627 1.12912 1.15683 1.02627 1.05082 1.15683 1.18139 1.12912 1.15683 1.24813 1.27588 1.15683 1.18139 1.27588 1.30049 1.05082 1.07168 1.18139 1.20148 1.07168 1.0874 1.20148 1.21547 1.18139 1.20148 1.30049 1.32023 1.20148 1.21547 1.32023 1.33311 0.407701 0.501613 0.639489 0.676317 0.501613 0.531128 0.676317 0.684793 0.639489 0.676317 0.8189 0.822538 0.676317 0.684793 0.822538 0.80391 -0.732639 -0.774169 -0.825102 -0.902012 -0.774169 -0.817561 -0.902012 -0.979688 -0.825102 -0.902012 -0.910714 -1.01752 -0.902012 -0.979688 -1.01752 -1.12247 -0.910714 -1.01752 -0.991037 -1.12438 -1.01752 -1.12247 -1.12438 -1.25322 -0.991037 -1.12438 -1.06708 -1.22477 -1.12438 -1.25322 -1.22477 -1.37561 0.778995 0.802175 0.943918 0.960955 0.802175 0.8189 0.960955 0.969017 0.943918 0.960955 1.0874 1.09931 0.960955 0.969017 1.09931 1.10077 -0.732639 -0.604992 -0.774169 -0.636084 -0.604992 -0.470866 -0.636084 -0.480989 -0.774169 -0.636084 -0.817561 -0.683685 -0.636084 -0.480989 -0.683685 -0.522532 -1.10562 -1.0858 -1.22543 -1.22402 -1.0858 -1.06708 -1.22402 -1.22477 -1.22543 -1.22402 -1.3446 -1.35968 -1.22402 -1.22477 -1.35968 -1.37561 -1.3446 -1.35968 -1.46181 -1.49003 -1.35968 -1.37561 -1.49003 -1.51559 -1.46181 -1.49003 -1.57695 -1.61318 -1.49003 -1.51559 -1.61318 -1.64183 0.88621 0.974061 0.978124 1.07902 0.974061 1.05751 1.07902 1.1756 0.978124 1.07902 1.06143 1.17596 1.07902 1.1756 1.17596 1.2841 1.01691 1.11099 1.03565 1.14303 1.11099 1.2063 1.14303 1.24753 1.03565 1.14303 1.05751 1.1756 1.14303 1.24753 1.1756 1.2841 -0.362492 -0.456752 -0.198039 -0.276475 -0.456752 -0.559209 -0.276475 -0.366166 -0.198039 -0.276475 -0.0340681 -0.0927394 -0.276475 -0.366166 -0.0927394 -0.161111 -0.559209 -0.666742 -0.366166 -0.467302 -0.666742 -0.771242 -0.467302 -0.575897 -0.366166 -0.467302 -0.161111 -0.241795 -0.467302 -0.575897 -0.241795 -0.340492 -0.161111 -0.241795 0.0404074 -0.0120024 -0.241795 -0.340492 -0.0120024 -0.0752012 0.0404074 -0.0120024 0.224857 0.198692 -0.0120024 -0.0752012 0.198692 0.170626 -0.201955 -0.277694 -0.0687435 -0.129185 -0.277694 -0.362492 -0.129185 -0.198039 -0.0687435 -0.129185 0.0618253 0.0170663 -0.129185 -0.198039 0.0170663 -0.0340681 -0.0340681 -0.0927394 0.123434 0.0848361 -0.0927394 -0.161111 0.0848361 0.0404074 0.123434 0.0848361 0.270152 0.248428 0.0848361 0.0404074 0.248428 0.224857 0.224857 0.198692 0.386084 0.377132 0.198692 0.170626 0.377132 0.368583 0.386084 0.377132 0.526205 0.526805 0.377132 0.368583 0.526805 0.528037 -0.656432 -0.592928 -0.454449 -0.383973 -0.592928 -0.523344 -0.383973 -0.301173 -0.454449 -0.383973 -0.201921 -0.11785 -0.383973 -0.301173 -0.11785 -0.0199853 -0.523344 -0.447464 -0.301173 -0.197563 -0.447464 -0.359812 -0.197563 -0.0695371 -0.301173 -0.197563 -0.0199853 0.0939093 -0.197563 -0.0695371 0.0939093 0.225916 
SCALARS solution_1 double 1
LOOKUP_TABLE default
0 0.275784 0 0.375571 0 0.212619 0 0.275784 0.212619 0.440563 0.275784 0.553756 0.275784 0.553756 0.375571 0.600269 0.375571 0.600269 0.647978 0.940159 -0.93523 -1.14163 -0.713569 -0.976112 -0.713569 -0.976112 -0.448812 -0.782746 -0.713569 -0.448812 -0.445585 -0.25446 -0.93523 -0.713569 -0.712312 -0.445585 0.553756 0.871899 0.600269 0.940159 0.440563 0.685741 0.553756 0.871899 2.12873 1.46227 2.34748 1.77635 2.9374 2.34748 3.12638 2.56889 2.34748 1.77635 2.56889 2.05486 -0.223761 -0.536679 0.212197 -0.367967 -0.0753471 0.0543625 0.180904 0.47286 0.180904 0.47286 0.444237 0.915127 0 0.339845 0 0.526618 0.339845 0.647978 0.526618 0.965083 0 0.526618 0 0.983357 0.526618 0.965083 0.983357 1.46227 0.647978 0.806377 0.965083 1.23869 0.806377 0.940159 1.23869 1.46599 0.965083 1.23869 1.46227 1.77635 0.871899 1.08798 0.900743 1.24502 1.08798 1.31522 1.24502 1.63079 0.900743 1.24502 0.940159 1.46599 -0.448812 -0.6117 -0.22587 -0.441314 -0.6117 -0.782746 -0.441314 -0.669258 -0.22587 -0.441314 0.0603595 -0.223761 -0.441314 -0.669258 -0.223761 -0.536679 -0.475211 -0.283263 -0.354482 -0.107009 -0.283263 -0.0753471 -0.107009 0.180904 -0.354482 -0.107009 -0.234005 0.0678098 -0.107009 0.180904 0.0678098 0.444237 0.685741 0.812438 0.774259 0.934077 0.812438 0.94027 0.934077 1.0939 0.774259 0.934077 0.871899 1.08798 0.934077 1.0939 1.08798 1.31522 -0.448812 -0.22587 -0.34876 -0.12367 -0.22587 0.0603595 -0.12367 0.142231 -0.34876 -0.12367 -0.25446 -0.0357368 -0.12367 0.142231 -0.0357368 0.205755 -0.712312 -0.578165 -0.594949 -0.431202 -0.578165 -0.445585 -0.431202 -0.262621 -0.594949 -0.431202 -0.475211 -0.283263 -0.431202 -0.262621 -0.283263 -0.0753471 -0.445585 -0.353378 -0.262621 -0.155207 -0.353378 -0.25446 -0.155207 -0.0357368 -0.262621 -0.155207 -0.0753471 0.0543625 -0.155207 -0.0357368 0.0543625 0.205755 0 0.190386 0 0.251263 0.190386 0.375571 0.251263 0.490135 0 0.251263 0 0.339845 0.251263 0.490135 0.339845 0.647978 3.26965 2.85798 3.15493 2.66087 2.85798 2.42334 2.66087 2.12313 3.15493 2.66087 3.03988 2.45441 2.66087 2.12313 2.45441 1.78655 4.09789 3.57708 4.11055 3.63528 4.11055 3.63528 4.1202 3.69476 3.63528 3.14327 3.69476 3.25256 3.25256 2.77692 3.36504 2.95126 3.36504 2.95126 3.47818 3.12549 2.95126 2.49952 3.12549 2.75137 1.78655 1.51821 1.99325 1.71216 1.99325 1.71216 2.2411 1.95423 1.71216 1.3938 1.95423 1.64199 2.42334 2.31861 2.12313 1.99155 2.31861 2.2329 1.99155 1.89585 2.12313 1.99155 1.78655 1.62826 1.99155 1.89585 1.62826 1.53735 2.2329 2.16552 1.89585 1.83192 2.16552 2.11456 1.83192 1.79352 1.89585 1.83192 1.53735 1.49445 1.83192 1.79352 1.49445 1.4824 4.0155 3.75522 4.03839 3.71129 3.75522 3.49293 3.71129 3.38267 4.03839 3.71129 4.06097 3.66652 3.71129 3.38267 3.66652 3.26965 3.49293 3.22631 3.38267 3.04628 3.22631 2.95364 3.04628 2.69808 3.38267 3.04628 3.26965 2.85798 3.04628 2.69808 2.85798 2.42334 4.06097 3.66652 4.08126 3.62148 3.66652 3.26965 3.62148 3.15493 4.08126 3.62148 4.09789 3.57708 3.62148 3.15493 3.57708 3.03988 4.1202 3.69476 4.12871 3.7547 3.69476 3.25256 3.7547 3.36504 4.12871 3.7547 4.13824 3.81487 3.7547 3.36504 3.81487 3.47818 0.801446 0 1.02054 0.676639 1.3938 1.02054 1.64199 1.30638 1.02054 0.676639 1.30638 0.983357 2.2411 1.95423 2.49952 2.20569 1.95423 1.64199 2.20569 1.89251 2.49952 2.20569 2.75137 2.44843 2.20569 1.89251 2.44843 2.12873 0.76708 1.29158 0.764858 1.19518 1.29158 1.78655 1.19518 1.62826 0.764858 1.19518 0.783258 1.15898 1.19518 1.62826 1.15898 1.53735 0.783258 1.15898 0.809205 1.15363 1.15898 1.53735 1.15363 1.49445 0.809205 1.15363 0.838123 1.16484 1.15363 1.49445 1.16484 1.4824 0.76708 0.508482 1.29158 1.0178 0.508482 0.212197 1.0178 0.679067 1.29158 1.0178 1.78655 1.51821 1.0178 0.679067 1.51821 1.20506 0.212197 -0.0889128 0.679067 0.211593 -0.0889128 -0.367967 0.211593 -0.252292 0.679067 0.211593 1.20506 0.801446 0.211593 -0.252292 0.801446 0 2.95364 2.89772 2.69808 2.61854 2.89772 2.84688 2.61854 2.54898 2.69808 2.61854 2.42334 2.31861 2.61854 2.54898 2.31861 2.2329 2.84688 2.80104 2.54898 2.48924 2.80104 2.75997 2.48924 2.43868 2.54898 2.48924 2.2329 2.16552 2.48924 2.43868 2.16552 2.11456 4.0155 3.99425 3.75522 3.72888 3.99425 3.97619 3.72888 3.70599 3.75522 3.72888 3.49293 3.45839 3.72888 3.70599 3.45839 3.42775 3.97619 3.96232 3.70599 3.68686 3.96232 3.9531 3.68686 3.67151 3.70599 3.68686 3.42775 3.40109 3.68686 3.67151 3.40109 3.37839 3.49293 3.45839 3.22631 3.18168 3.45839 3.42775 3.18168 3.14148 3.22631 3.18168 2.95364 2.89772 3.18168 3.14148 2.89772 2.84688 3.42775 3.40109 3.14148 3.10568 3.40109 3.37839 3.10568 3.0741 3.14148 3.10568 2.84688 2.80104 3.10568 3.0741 2.80104 2.75997 4.13824 3.81487 4.15065 3.84519 3.81487 3.47818 3.84519 3.52584 4.15065 3.84519 4.16723 3.87829 3.84519 3.52584 3.87829 3.57615 3.47818 3.12549 3.52584 3.19258 3.12549 2.75137 3.19258 2.84306 3.52584 3.19258 3.57615 3.26252 3.19258 2.84306 3.26252 2.9374 4.16723 3.87829 4.18865 3.91429 3.87829 3.57615 3.91429 3.62873 4.18865 3.91429 4.21505 3.95295 3.91429 3.62873 3.95295 3.68314 3.57615 3.26252 3.62873 3.33424 3.26252 2.9374 3.33424 3.03227 3.62873 3.33424 3.68314 3.40685 3.33424 3.03227 3.40685 3.12638 1.64199 1.30638 1.89251 1.56453 1.30638 0.983357 1.56453 1.24793 1.89251 1.56453 2.12873 1.79396 1.56453 1.24793 1.79396 1.46227 0.0603595 0.345091 0.104276 0.394988 0.345091 0.76708 0.394988 0.764858 0.104276 0.394988 0.142231 0.43894 0.394988 0.764858 0.43894 0.783258 0.142231 0.43894 0.17581 0.478488 0.43894 0.783258 0.478488 0.809205 0.17581 0.478488 0.205755 0.514378 0.478488 0.809205 0.514378 0.838123 2.75137 2.44843 2.84306 2.5447 2.44843 2.12873 2.5447 2.23626 2.84306 2.5447 2.9374 2.64459 2.5447 2.23626 2.64459 2.34748 0.0603595 -0.0788255 0.345091 0.152992 -0.0788255 -0.223761 0.152992 -0.0509383 0.345091 0.152992 0.76708 0.508482 0.152992 -0.0509383 0.508482 0.212197 0.0543625 0.126617 0.259493 0.379469 0.126617 0.205755 0.379469 0.514378 0.259493 0.379469 0.47286 0.644451 0.379469 0.514378 0.644451 0.838123 0.47286 0.644451 0.692228 0.916112 0.644451 0.838123 0.916112 1.16484 0.692228 0.916112 0.915127 1.18787 0.916112 1.16484 1.18787 1.4824 1.23869 1.35689 1.49984 1.63346 1.35689 1.46599 1.63346 1.75865 1.49984 1.63346 1.77635 1.91884 1.63346 1.75865 1.91884 2.05486 1.24502 1.43354 1.34559 1.58316 1.43354 1.63079 1.58316 1.82952 1.34559 1.58316 1.46599 1.75865 1.58316 1.82952 1.75865 2.05486 3.03988 2.75513 3.09054 2.81765 2.75513 2.45441 2.81765 2.52897 3.09054 2.81765 3.14327 2.88304 2.81765 2.52897 2.88304 2.60842 2.45441 2.13269 2.52897 2.21965 2.13269 1.78655 2.21965 1.88254 2.52897 2.21965 2.60842 2.31428 2.21965 1.88254 2.31428 1.99325 2.60842 2.31428 2.69141 2.41476 2.31428 1.99325 2.41476 2.11417 2.69141 2.41476 2.77692 2.51885 2.41476 2.11417 2.51885 2.2411 3.57708 3.3125 3.606 3.35217 3.3125 3.03988 3.35217 3.09054 3.606 3.35217 3.63528 3.3929 3.35217 3.09054 3.3929 3.14327 3.14327 2.88304 3.19738 2.95075 2.88304 2.60842 2.95075 2.69141 3.19738 2.95075 3.25256 3.02023 2.95075 2.69141 3.02023 2.77692 2.77692 2.51885 2.8638 2.62484 2.51885 2.2411 2.62484 2.37029 2.8638 2.62484 2.95126 2.73128 2.62484 2.37029 2.73128 2.49952 1.51821 1.36926 1.6064 1.4536 1.36926 1.20506 1.4536 1.28736 1.6064 1.4536 1.71216 1.5586 1.4536 1.28736 1.5586 1.3938 1.20506 1.02215 1.28736 1.10295 1.02215 0.801446 1.10295 0.894639 1.28736 1.10295 1.3938 1.21578 1.10295 0.894639 1.21578 1.02054 
