# vtk DataFile Version 3.0
#This file was generated by the deal.II library on 2020/5/26 at 18:33:38
ASCII
DATASET UNSTRUCTURED_GRID

POINTS 628 double
-1 -0.5 0
-1 -1 0
-0.594794 -0.6188 0
-0.5 -1 0
0.75 0 0
0.753902 0.245343 0
0.5 0 0
0.517661 0.266605 0
1 0 0
1 0.25 0
0.75 0 0
0.753902 0.245343 0
1 0.25 0
1 0.5 0
0.753902 0.245343 0
0.727933 0.483829 0
0.753902 0.245343 0
0.727933 0.483829 0
0.517661 0.266605 0
0.549078 0.445837 0
0.647124 -0.712901 0
0.367761 -0.581653 0
0.5 -1 0
-2.7528e-12 -1 0
1 -0.75 0
0.647124 -0.712901 0
1 -1 0
0.5 -1 0
1 -0.5 0
0.739181 -0.473895 0
1 -0.75 0
0.647124 -0.712901 0
0.739181 -0.473895 0
0.545836 -0.43419 0
0.647124 -0.712901 0
0.367761 -0.581653 0
0.517661 0.266605 0
0.549078 0.445837 0
0.267855 0.341094 0
0.383304 0.602648 0
1 -0.25 0
1 -1e-08 0
0.755346 -0.24105 0
0.75 -7.5e-09 0
0.755346 -0.24105 0
0.75 -7.5e-09 0
0.517144 -0.253727 0
0.5 -5e-09 0
0.755346 -0.24105 0
0.517144 -0.253727 0
0.739181 -0.473895 0
0.545836 -0.43419 0
1 -0.25 0
0.755346 -0.24105 0
1 -0.5 0
0.739181 -0.473895 0
1 0.75 0
1 1 0
0.645326 0.721511 0
0.5 1 0
0.727933 0.483829 0
0.645326 0.721511 0
0.549078 0.445837 0
0.383304 0.602648 0
1 0.5 0
1 0.75 0
0.727933 0.483829 0
0.645326 0.721511 0
-0.594794 -0.6188 0
-0.547397 -0.8094 0
-0.418835 -0.452068 0
-0.334417 -0.726034 0
-0.547397 -0.8094 0
-0.5 -1 0
-0.334417 -0.726034 0
-0.25 -1 0
-0.334417 -0.726034 0
-0.25 -1 0
-0.121437 -0.642668 0
-2.7528e-12 -1 0
-0.466976 0.442128 0
-0.261011 0.437564 0
-0.483488 0.721064 0
-0.255506 0.718782 0
-0.261011 0.437564 0
-0.0550467 0.433 0
-0.255506 0.718782 0
-0.0275233 0.7165 0
-0.483488 0.721064 0
-0.255506 0.718782 0
-0.5 1 0
-0.25 1 0
-0.255506 0.718782 0
-0.0275233 0.7165 0
-0.25 1 0
2.7528e-12 1 0
-1 2.7528e-12 0
-0.621437 -0.142668 0
-1 0.25 0
-0.677463 0.164198 0
-1 0.25 0
-0.677463 0.164198 0
-1 0.5 0
-0.733488 0.471064 0
0.302317 -0.444683 0
0.0904396 -0.543675 0
0.367761 -0.581653 0
0.183881 -0.790827 0
0.0904396 -0.543675 0
-0.121437 -0.642668 0
0.183881 -0.790827 0
-2.7528e-12 -1 0
-1 -0.5 0
-0.797397 -0.5594 0
-1 -0.25 0
-0.709417 -0.351034 0
-0.797397 -0.5594 0
-0.594794 -0.6188 0
-0.709417 -0.351034 0
-0.418835 -0.452068 0
-1 -0.25 0
-0.709417 -0.351034 0
-1 2.7528e-12 0
-0.621437 -0.142668 0
-0.709417 -0.351034 0
-0.418835 -0.452068 0
-0.621437 -0.142668 0
-0.242875 -0.285335 0
0.517144 -0.253727 0
0.508572 -0.126864 0
0.377008 -0.28072 0
0.376004 -0.14036 0
0.508572 -0.126864 0
0.5 -5e-09 0
0.376004 -0.14036 0
0.375 -3.75e-09 0
0.377008 -0.28072 0
0.376004 -0.14036 0
0.236872 -0.307713 0
0.243436 -0.153857 0
0.376004 -0.14036 0
0.375 -3.75e-09 0
0.243436 -0.153857 0
0.25 -2.5e-09 0
0.267855 0.341094 0
0.325579 0.471871 0
0.106404 0.387047 0
0.149028 0.594186 0
0.325579 0.471871 0
0.383304 0.602648 0
0.149028 0.594186 0
0.191652 0.801324 0
0.106404 0.387047 0
0.149028 0.594186 0
-0.0550467 0.433 0
-0.0275233 0.7165 0
0.149028 0.594186 0
0.191652 0.801324 0
-0.0275233 0.7165 0
2.7528e-12 1 0
-1 0.5 0
-0.733488 0.471064 0
-1 0.75 0
-0.741744 0.735532 0
-0.733488 0.471064 0
-0.466976 0.442128 0
-0.741744 0.735532 0
-0.483488 0.721064 0
-1 0.75 0
-0.741744 0.735532 0
-1 1 0
-0.75 1 0
-0.741744 0.735532 0
-0.483488 0.721064 0
-0.75 1 0
-0.5 1 0
0.517144 -0.253727 0
0.377008 -0.28072 0
0.53149 -0.343959 0
0.416904 -0.394321 0
0.377008 -0.28072 0
0.236872 -0.307713 0
0.416904 -0.394321 0
0.302317 -0.444683 0
0.53149 -0.343959 0
0.416904 -0.394321 0
0.545836 -0.43419 0
0.456799 -0.507922 0
0.416904 -0.394321 0
0.302317 -0.444683 0
0.456799 -0.507922 0
0.367761 -0.581653 0
0.5 0 0
0.508831 0.133303 0
0.375 0 0
0.383879 0.151925 0
0.508831 0.133303 0
0.517661 0.266605 0
0.383879 0.151925 0
0.392758 0.30385 0
0.375 0 0
0.383879 0.151925 0
0.25 0 0
0.258927 0.170547 0
0.383879 0.151925 0
0.392758 0.30385 0
0.258927 0.170547 0
0.267855 0.341094 0
0.645326 0.721511 0
0.572663 0.860755 0
0.514315 0.66208 0
0.382158 0.83104 0
0.572663 0.860755 0
0.5 1 0
0.382158 0.83104 0
0.25 1 0
0.514315 0.66208 0
0.382158 0.83104 0
0.383304 0.602648 0
0.191652 0.801324 0
0.382158 0.83104 0
0.25 1 0
0.191652 0.801324 0
2.7528e-12 1 0
-0.621437 -0.142668 0
-0.432156 -0.214002 0
-0.64945 0.0107652 0
-0.474175 -0.0463522 0
-0.432156 -0.214002 0
-0.242875 -0.285335 0
-0.474175 -0.0463522 0
-0.2989 -0.10347 0
-0.64945 0.0107652 0
-0.474175 -0.0463522 0
-0.677463 0.164198 0
-0.516194 0.121297 0
-0.474175 -0.0463522 0
-0.2989 -0.10347 0
-0.516194 0.121297 0
-0.354925 0.0783963 0
-0.242875 -0.285335 0
-0.182156 -0.214002 0
-0.2989 -0.10347 0
-0.227616 -0.0505397 0
-0.182156 -0.214002 0
-0.121437 -0.142668 0
-0.227616 -0.0505397 0
-0.156331 0.00239026 0
-0.2989 -0.10347 0
-0.227616 -0.0505397 0
-0.354925 0.0783963 0
-0.273075 0.112922 0
-0.227616 -0.0505397 0
-0.156331 0.00239026 0
-0.273075 0.112922 0
-0.191224 0.147448 0
-0.354925 0.0783963 0
-0.273075 0.112922 0
-0.410951 0.260262 0
-0.318534 0.276384 0
-0.273075 0.112922 0
-0.191224 0.147448 0
-0.318534 0.276384 0
-0.226118 0.292506 0
-0.410951 0.260262 0
-0.318534 0.276384 0
-0.466976 0.442128 0
-0.363993 0.439846 0
-0.318534 0.276384 0
-0.226118 0.292506 0
-0.363993 0.439846 0
-0.261011 0.437564 0
-0.191224 0.147448 0
-0.109374 0.181974 0
-0.226118 0.292506 0
-0.133701 0.308628 0
-0.109374 0.181974 0
-0.0275233 0.2165 0
-0.133701 0.308628 0
-0.041285 0.32475 0
-0.226118 0.292506 0
-0.133701 0.308628 0
-0.261011 0.437564 0
-0.158029 0.435282 0
-0.133701 0.308628 0
-0.041285 0.32475 0
-0.158029 0.435282 0
-0.0550467 0.433 0
0.236872 -0.307713 0
0.240154 -0.230785 0
0.116935 -0.302119 0
0.134576 -0.226589 0
0.240154 -0.230785 0
0.243436 -0.153857 0
0.134576 -0.226589 0
0.152218 -0.151059 0
0.116935 -0.302119 0
0.134576 -0.226589 0
-0.00300155 -0.296524 0
0.0289988 -0.222393 0
0.134576 -0.226589 0
0.152218 -0.151059 0
0.0289988 -0.222393 0
0.0609992 -0.148262 0
0.243436 -0.153857 0
0.246718 -0.0769283 0
0.152218 -0.151059 0
0.169859 -0.0755297 0
0.246718 -0.0769283 0
0.25 -2.5e-09 0
0.169859 -0.0755297 0
0.1875 -1.875e-09 0
0.152218 -0.151059 0
0.169859 -0.0755297 0
0.0609992 -0.148262 0
0.0929996 -0.0741311 0
0.169859 -0.0755297 0
0.1875 -1.875e-09 0
0.0929996 -0.0741311 0
0.125 -1.25e-09 0
-0.00300155 -0.296524 0
0.0289988 -0.222393 0
-0.122938 -0.29093 0
-0.0765787 -0.218197 0
0.0289988 -0.222393 0
0.0609992 -0.148262 0
-0.0765787 -0.218197 0
-0.0302191 -0.145465 0
-0.122938 -0.29093 0
-0.0765787 -0.218197 0
-0.242875 -0.285335 0
-0.182156 -0.214002 0
-0.0765787 -0.218197 0
-0.0302191 -0.145465 0
-0.182156 -0.214002 0
-0.121437 -0.142668 0
0.120351 0.0967618 0
0.115702 0.193524 0
0.0532947 0.102506 0
0.0440894 0.205012 0
0.115702 0.193524 0
0.111053 0.290285 0
0.0440894 0.205012 0
0.034884 0.307518 0
0.111053 0.290285 0
0.106404 0.387047 0
0.034884 0.307518 0
0.0256787 0.410024 0
0.0440894 0.205012 0
0.034884 0.307518 0
-0.0275233 0.2165 0
-0.041285 0.32475 0
0.034884 0.307518 0
0.0256787 0.410024 0
-0.041285 0.32475 0
-0.0550467 0.433 0
-0.418835 -0.452068 0
-0.376626 -0.589051 0
-0.330855 -0.368701 0
-0.279391 -0.526526 0
-0.376626 -0.589051 0
-0.334417 -0.726034 0
-0.279391 -0.526526 0
-0.227927 -0.684351 0
-0.330855 -0.368701 0
-0.279391 -0.526526 0
-0.242875 -0.285335 0
-0.182156 -0.464002 0
-0.279391 -0.526526 0
-0.227927 -0.684351 0
-0.182156 -0.464002 0
-0.121437 -0.642668 0
-0.677463 0.164198 0
-0.516194 0.121297 0
-0.705475 0.317631 0
-0.558213 0.288947 0
-0.516194 0.121297 0
-0.354925 0.0783963 0
-0.558213 0.288947 0
-0.410951 0.260262 0
-0.705475 0.317631 0
-0.558213 0.288947 0
-0.733488 0.471064 0
-0.600232 0.456596 0
-0.558213 0.288947 0
-0.410951 0.260262 0
-0.600232 0.456596 0
-0.466976 0.442128 0
0.236872 -0.307713 0
0.116935 -0.302119 0
0.269594 -0.376198 0
0.156657 -0.398149 0
0.116935 -0.302119 0
-0.00300155 -0.296524 0
0.156657 -0.398149 0
0.043719 -0.4201 0
0.269594 -0.376198 0
0.156657 -0.398149 0
0.302317 -0.444683 0
0.196378 -0.494179 0
0.156657 -0.398149 0
0.043719 -0.4201 0
0.196378 -0.494179 0
0.0904396 -0.543675 0
-0.00300155 -0.296524 0
-0.122938 -0.29093 0
0.043719 -0.4201 0
-0.0692186 -0.442051 0
-0.122938 -0.29093 0
-0.242875 -0.285335 0
-0.0692186 -0.442051 0
-0.182156 -0.464002 0
0.043719 -0.4201 0
-0.0692186 -0.442051 0
0.0904396 -0.543675 0
-0.015499 -0.593172 0
-0.0692186 -0.442051 0
-0.182156 -0.464002 0
-0.015499 -0.593172 0
-0.121437 -0.642668 0
0.25 0 0
0.254464 0.0852735 0
0.1875 0 0
0.187407 0.0910176 0
0.254464 0.0852735 0
0.258927 0.170547 0
0.187407 0.0910176 0
0.187315 0.182035 0
0.1875 0 0
0.187407 0.0910176 0
0.125 0 0
0.120351 0.0967618 0
0.187407 0.0910176 0
0.187315 0.182035 0
0.120351 0.0967618 0
0.115702 0.193524 0
0.258927 0.170547 0
0.263391 0.25582 0
0.187315 0.182035 0
0.187222 0.273053 0
0.263391 0.25582 0
0.267855 0.341094 0
0.187222 0.273053 0
0.18713 0.364071 0
0.187315 0.182035 0
0.187222 0.273053 0
0.115702 0.193524 0
0.111053 0.290285 0
0.187222 0.273053 0
0.18713 0.364071 0
0.111053 0.290285 0
0.106404 0.387047 0
-0.121437 -0.142668 0
-0.0910781 -0.107001 0
-0.138884 -0.0701387 0
-0.105883 -0.0390728 0
-0.0910781 -0.107001 0
-0.0607187 -0.0713339 0
-0.105883 -0.0390728 0
-0.0728825 -0.00800684 0
-0.138884 -0.0701387 0
-0.105883 -0.0390728 0
-0.156331 0.00239026 0
-0.120689 0.0288552 0
-0.105883 -0.0390728 0
-0.0728825 -0.00800684 0
-0.120689 0.0288552 0
-0.0850463 0.0553202 0
-0.0607187 -0.0713339 0
-0.0303594 -0.0356669 0
-0.0728825 -0.00800684 0
-0.0398817 0.0230591 0
-0.0303594 -0.0356669 0
0 0 0
-0.0398817 0.0230591 0
-0.00688083 0.054125 0
-0.0728825 -0.00800684 0
-0.0398817 0.0230591 0
-0.0850463 0.0553202 0
-0.049404 0.0817851 0
-0.0398817 0.0230591 0
-0.00688083 0.054125 0
-0.049404 0.0817851 0
-0.0137617 0.10825 0
-0.156331 0.00239026 0
-0.120689 0.0288552 0
-0.173778 0.0749192 0
-0.135494 0.0967832 0
-0.120689 0.0288552 0
-0.0850463 0.0553202 0
-0.135494 0.0967832 0
-0.0972101 0.118647 0
-0.173778 0.0749192 0
-0.135494 0.0967832 0
-0.191224 0.147448 0
-0.150299 0.164711 0
-0.135494 0.0967832 0
-0.0972101 0.118647 0
-0.150299 0.164711 0
-0.109374 0.181974 0
-0.0850463 0.0553202 0
-0.049404 0.0817851 0
-0.0972101 0.118647 0
-0.0589263 0.140511 0
-0.049404 0.0817851 0
-0.0137617 0.10825 0
-0.0589263 0.140511 0
-0.0206425 0.162375 0
-0.0972101 0.118647 0
-0.0589263 0.140511 0
-0.109374 0.181974 0
-0.0684486 0.199237 0
-0.0589263 0.140511 0
-0.0206425 0.162375 0
-0.0684486 0.199237 0
-0.0275233 0.2165 0
0.0609992 -0.148262 0
0.0769994 -0.111197 0
0.01539 -0.146864 0
0.03498 -0.110148 0
0.0769994 -0.111197 0
0.0929996 -0.0741311 0
0.03498 -0.110148 0
0.05457 -0.0734318 0
0.01539 -0.146864 0
0.03498 -0.110148 0
-0.0302191 -0.145465 0
-0.00703935 -0.109099 0
0.03498 -0.110148 0
0.05457 -0.0734318 0
-0.00703935 -0.109099 0
0.0161404 -0.0727325 0
0.0929996 -0.0741311 0
0.109 -0.0370655 0
0.05457 -0.0734318 0
0.07416 -0.0367159 0
0.109 -0.0370655 0
0.125 -1.25e-09 0
0.07416 -0.0367159 0
0.09375 -9.375e-10 0
0.05457 -0.0734318 0
0.07416 -0.0367159 0
0.0161404 -0.0727325 0
0.0393202 -0.0363662 0
0.07416 -0.0367159 0
0.09375 -9.375e-10 0
0.0393202 -0.0363662 0
0.0625 -6.25e-10 0
-0.0302191 -0.145465 0
-0.00703935 -0.109099 0
-0.0758283 -0.144066 0
-0.0490587 -0.10805 0
-0.00703935 -0.109099 0
0.0161404 -0.0727325 0
-0.0490587 -0.10805 0
-0.0222892 -0.0720332 0
-0.0758283 -0.144066 0
-0.0490587 -0.10805 0
-0.121437 -0.142668 0
-0.0910781 -0.107001 0
-0.0490587 -0.10805 0
-0.0222892 -0.0720332 0
-0.0910781 -0.107001 0
-0.0607187 -0.0713339 0
0.0161404 -0.0727325 0
0.0393202 -0.0363662 0
-0.0222892 -0.0720332 0
0.00448042 -0.0360166 0
0.0393202 -0.0363662 0
0.0625 -6.25e-10 0
0.00448042 -0.0360166 0
0.03125 -3.125e-10 0
-0.0222892 -0.0720332 0
0.00448042 -0.0360166 0
-0.0607187 -0.0713339 0
-0.0303594 -0.0356669 0
0.00448042 -0.0360166 0
0.03125 -3.125e-10 0
-0.0303594 -0.0356669 0
0 0 0
0.125 0 0
0.122676 0.0483809 0
0.09375 0 0
0.0902864 0.0498169 0
0.122676 0.0483809 0
0.120351 0.0967618 0
0.0902864 0.0498169 0
0.0868229 0.0996339 0
0.09375 0 0
0.0902864 0.0498169 0
0.0625 0 0
0.0578973 0.051253 0
0.0902864 0.0498169 0
0.0868229 0.0996339 0
0.0578973 0.051253 0
0.0532947 0.102506 0
0.0625 0 0
0.0578973 0.051253 0
0.03125 0 0
0.0255083 0.052689 0
0.0578973 0.051253 0
0.0532947 0.102506 0
0.0255083 0.052689 0
0.0197665 0.105378 0
0.03125 0 0
0.0255083 0.052689 0
0 0 0
-0.00688083 0.054125 0
0.0255083 0.052689 0
0.0197665 0.105378 0
-0.00688083 0.054125 0
-0.0137617 0.10825 0
0.0532947 0.102506 0
0.048692 0.153759 0
0.0197665 0.105378 0
0.0140248 0.158067 0
0.048692 0.153759 0
0.0440894 0.205012 0
0.0140248 0.158067 0
0.00828302 0.210756 0
0.0197665 0.105378 0
0.0140248 0.158067 0
-0.0137617 0.10825 0
-0.0206425 0.162375 0
0.0140248 0.158067 0
0.00828302 0.210756 0
-0.0206425 0.162375 0
-0.0275233 0.2165 0

CELLS 157 785
4	0	1	3	2
4	4	5	7	6
4	8	9	11	10
4	12	13	15	14
4	16	17	19	18
4	20	21	23	22
4	24	25	27	26
4	28	29	31	30
4	32	33	35	34
4	36	37	39	38
4	40	41	43	42
4	44	45	47	46
4	48	49	51	50
4	52	53	55	54
4	56	57	59	58
4	60	61	63	62
4	64	65	67	66
4	68	69	71	70
4	72	73	75	74
4	76	77	79	78
4	80	81	83	82
4	84	85	87	86
4	88	89	91	90
4	92	93	95	94
4	96	97	99	98
4	100	101	103	102
4	104	105	107	106
4	108	109	111	110
4	112	113	115	114
4	116	117	119	118
4	120	121	123	122
4	124	125	127	126
4	128	129	131	130
4	132	133	135	134
4	136	137	139	138
4	140	141	143	142
4	144	145	147	146
4	148	149	151	150
4	152	153	155	154
4	156	157	159	158
4	160	161	163	162
4	164	165	167	166
4	168	169	171	170
4	172	173	175	174
4	176	177	179	178
4	180	181	183	182
4	184	185	187	186
4	188	189	191	190
4	192	193	195	194
4	196	197	199	198
4	200	201	203	202
4	204	205	207	206
4	208	209	211	210
4	212	213	215	214
4	216	217	219	218
4	220	221	223	222
4	224	225	227	226
4	228	229	231	230
4	232	233	235	234
4	236	237	239	238
4	240	241	243	242
4	244	245	247	246
4	248	249	251	250
4	252	253	255	254
4	256	257	259	258
4	260	261	263	262
4	264	265	267	266
4	268	269	271	270
4	272	273	275	274
4	276	277	279	278
4	280	281	283	282
4	284	285	287	286
4	288	289	291	290
4	292	293	295	294
4	296	297	299	298
4	300	301	303	302
4	304	305	307	306
4	308	309	311	310
4	312	313	315	314
4	316	317	319	318
4	320	321	323	322
4	324	325	327	326
4	328	329	331	330
4	332	333	335	334
4	336	337	339	338
4	340	341	343	342
4	344	345	347	346
4	348	349	351	350
4	352	353	355	354
4	356	357	359	358
4	360	361	363	362
4	364	365	367	366
4	368	369	371	370
4	372	373	375	374
4	376	377	379	378
4	380	381	383	382
4	384	385	387	386
4	388	389	391	390
4	392	393	395	394
4	396	397	399	398
4	400	401	403	402
4	404	405	407	406
4	408	409	411	410
4	412	413	415	414
4	416	417	419	418
4	420	421	423	422
4	424	425	427	426
4	428	429	431	430
4	432	433	435	434
4	436	437	439	438
4	440	441	443	442
4	444	445	447	446
4	448	449	451	450
4	452	453	455	454
4	456	457	459	458
4	460	461	463	462
4	464	465	467	466
4	468	469	471	470
4	472	473	475	474
4	476	477	479	478
4	480	481	483	482
4	484	485	487	486
4	488	489	491	490
4	492	493	495	494
4	496	497	499	498
4	500	501	503	502
4	504	505	507	506
4	508	509	511	510
4	512	513	515	514
4	516	517	519	518
4	520	521	523	522
4	524	525	527	526
4	528	529	531	530
4	532	533	535	534
4	536	537	539	538
4	540	541	543	542
4	544	545	547	546
4	548	549	551	550
4	552	553	555	554
4	556	557	559	558
4	560	561	563	562
4	564	565	567	566
4	568	569	571	570
4	572	573	575	574
4	576	577	579	578
4	580	581	583	582
4	584	585	587	586
4	588	589	591	590
4	592	593	595	594
4	596	597	599	598
4	600	601	603	602
4	604	605	607	606
4	608	609	611	610
4	612	613	615	614
4	616	617	619	618
4	620	621	623	622
4	624	625	627	626

CELL_TYPES 157
 9 9 9 9 9 9 9 9 9 9 9 9 9 9 9 9 9 9 9 9 9 9 9 9 9 9 9 9 9 9 9 9 9 9 9 9 9 9 9 9 9 9 9 9 9 9 9 9 9 9 9 9 9 9 9 9 9 9 9 9 9 9 9 9 9 9 9 9 9 9 9 9 9 9 9 9 9 9 9 9 9 9 9 9 9 9 9 9 9 9 9 9 9 9 9 9 9 9 9 9 9 9 9 9 9 9 9 9 9 9 9 9 9 9 9 9 9 9 9 9 9 9 9 9 9 9 9 9 9 9 9 9 9 9 9 9 9 9 9 9 9 9 9 9 9 9 9 9 9 9 9 9 9 9 9 9 9
POINT_DATA 628
SCALARS solution_0 double 1
LOOKUP_TABLE default
-0.891082 -1.53193 -1.1785 -1.64636 0.463219 0.52033 0.371456 0.494413 0.541768 0.584763 0.463219 0.52033 0.584763 0.698484 0.52033 0.67137 0.52033 0.67137 0.494413 0.643553 -1.14859 -1.06731 -1.49579 -1.64183 -1.12991 -1.14859 -1.36642 -1.49579 -0.89252 -0.869785 -1.12991 -1.14859 -0.869785 -0.84083 -1.14859 -1.06731 0.494413 0.643553 0.57923 0.814272 -0.677977 -0.520744 -0.624514 -0.445243 -0.624514 -0.445243 -0.616905 -0.357041 -0.624514 -0.616905 -0.869785 -0.84083 -0.677977 -0.624514 -0.89252 -0.869785 0.851725 1.0187 0.864534 1.1244 0.67137 0.864534 0.643553 0.814272 0.698484 0.851725 0.67137 0.864534 -1.1785 -1.42824 -0.989602 -1.36995 -1.42824 -1.64636 -1.36995 -1.6665 -1.36995 -1.6665 -1.28578 -1.64183 0.778822 0.818802 1.08689 1.10069 0.818802 0.806483 1.10069 1.06217 1.08689 1.10069 1.33311 1.33044 1.10069 1.06217 1.33044 1.2841 -0.0754658 -0.361294 0.334589 0.271143 0.334589 0.271143 0.696491 0.74032 -0.911337 -1.12384 -1.06731 -1.37634 -1.12384 -1.28578 -1.37634 -1.64183 -0.891082 -1.03845 -0.497499 -0.736607 -1.03845 -1.1785 -0.736607 -0.989602 -0.497499 -0.736607 -0.0754658 -0.361294 -0.736607 -0.989602 -0.361294 -0.770354 -0.616905 -0.46568 -0.659099 -0.45709 -0.46568 -0.357041 -0.45709 -0.305275 -0.659099 -0.45709 -0.733838 -0.472864 -0.45709 -0.305275 -0.472864 -0.244801 0.57923 0.702932 0.692888 0.887996 0.702932 0.814272 0.887996 1.05851 0.692888 0.887996 0.806483 1.06217 0.887996 1.05851 1.06217 1.2841 0.696491 0.74032 0.998561 1.05047 0.74032 0.778822 1.05047 1.08689 0.998561 1.05047 1.24813 1.30049 1.05047 1.08689 1.30049 1.33311 -0.616905 -0.659099 -0.729444 -0.811128 -0.659099 -0.733838 -0.811128 -0.911337 -0.729444 -0.811128 -0.84083 -0.95011 -0.811128 -0.911337 -0.95011 -1.06731 0.371456 0.403635 0.3176 0.382177 0.403635 0.494413 0.382177 0.521687 0.3176 0.382177 0.254684 0.383838 0.382177 0.521687 0.383838 0.57923 0.864534 0.991118 0.83704 1.01754 0.991118 1.1244 1.01754 1.2063 0.83704 1.01754 0.814272 1.05851 1.01754 1.2063 1.05851 1.2841 -0.361294 -0.557995 -0.0337605 -0.158506 -0.557995 -0.770354 -0.158506 -0.338125 -0.0337605 -0.158506 0.271143 0.224896 -0.158506 -0.338125 0.224896 0.171167 -0.770354 -0.654125 -0.338125 -0.198641 -0.654125 -0.521643 -0.198641 -0.0105019 -0.338125 -0.198641 0.171167 0.287787 -0.198641 -0.0105019 0.287787 0.40314 0.171167 0.287787 0.527922 0.587043 0.287787 0.40314 0.587043 0.640032 0.527922 0.587043 0.778822 0.802139 0.587043 0.640032 0.802139 0.818802 0.40314 0.500143 0.640032 0.677252 0.500143 0.547614 0.677252 0.685969 0.640032 0.677252 0.818802 0.823212 0.677252 0.685969 0.823212 0.806483 -0.733838 -0.60639 -0.775629 -0.63733 -0.60639 -0.472864 -0.63733 -0.48272 -0.775629 -0.63733 -0.81862 -0.68484 -0.63733 -0.48272 -0.68484 -0.520587 -0.472864 -0.34028 -0.48272 -0.322407 -0.34028 -0.244801 -0.322407 -0.209308 -0.48272 -0.322407 -0.520587 -0.321018 -0.322407 -0.209308 -0.321018 -0.167844 -0.81862 -0.68484 -0.814772 -0.696066 -0.68484 -0.520587 -0.696066 -0.556951 -0.814772 -0.696066 -0.770354 -0.654125 -0.696066 -0.556951 -0.654125 -0.521643 0.284407 0.439605 0.316568 0.495349 0.439605 0.575081 0.495349 0.635285 0.575081 0.692888 0.635285 0.755014 0.495349 0.635285 0.547614 0.685969 0.635285 0.755014 0.685969 0.806483 -0.989602 -1.19387 -0.883993 -1.13135 -1.19387 -1.36995 -1.13135 -1.33291 -0.883993 -1.13135 -0.770354 -1.06304 -1.13135 -1.33291 -1.06304 -1.28578 0.271143 0.224896 0.526598 0.526097 0.224896 0.171167 0.526097 0.527922 0.526598 0.526097 0.74032 0.76022 0.526097 0.527922 0.76022 0.778822 -0.733838 -0.775629 -0.82624 -0.903554 -0.775629 -0.81862 -0.903554 -0.981095 -0.82624 -0.903554 -0.911337 -1.01939 -0.903554 -0.981095 -1.01939 -1.12384 -0.81862 -0.814772 -0.981095 -1.03619 -0.814772 -0.770354 -1.03619 -1.06304 -0.981095 -1.03619 -1.12384 -1.21423 -1.03619 -1.06304 -1.21423 -1.28578 0.254684 0.29408 0.217758 0.28086 0.29408 0.383838 0.28086 0.401581 0.217758 0.28086 0.174621 0.284407 0.28086 0.401581 0.284407 0.439605 0.383838 0.482006 0.401581 0.521229 0.482006 0.57923 0.521229 0.631612 0.401581 0.521229 0.439605 0.575081 0.521229 0.631612 0.575081 0.692888 -0.521643 -0.442885 -0.296885 -0.197286 -0.442885 -0.3541 -0.197286 -0.0571966 -0.296885 -0.197286 -0.0105019 0.106039 -0.197286 -0.0571966 0.106039 0.230336 -0.3541 -0.240357 -0.0571966 0.143961 -0.240357 0 0.143961 0.252626 -0.0571966 0.143961 0.230336 0.322899 0.143961 0.252626 0.322899 0.374358 -0.0105019 0.106039 0.23293 0.315822 0.106039 0.230336 0.315822 0.386771 0.23293 0.315822 0.40314 0.456373 0.315822 0.386771 0.456373 0.500143 0.230336 0.322899 0.386771 0.438523 0.322899 0.374358 0.438523 0.467568 0.386771 0.438523 0.500143 0.531202 0.438523 0.467568 0.531202 0.547614 -0.520587 -0.423638 -0.546007 -0.448737 -0.423638 -0.321018 -0.448737 -0.333962 -0.546007 -0.448737 -0.556951 -0.471509 -0.448737 -0.333962 -0.471509 -0.362213 -0.321018 -0.225469 -0.333962 -0.214896 -0.225469 -0.167844 -0.214896 -0.143509 -0.333962 -0.214896 -0.362213 -0.215541 -0.214896 -0.143509 -0.215541 -0.11508 -0.556951 -0.471509 -0.544969 -0.466922 -0.471509 -0.362213 -0.466922 -0.375425 -0.544969 -0.466922 -0.521643 -0.442885 -0.466922 -0.375425 -0.442885 -0.3541 -0.362213 -0.215541 -0.375425 -0.244523 -0.215541 -0.11508 -0.244523 -0.0789032 -0.375425 -0.244523 -0.3541 -0.240357 -0.244523 -0.0789032 -0.240357 0 0.174621 0.208847 0.149303 0.200694 0.208847 0.284407 0.200694 0.29489 0.149303 0.200694 0.119726 0.202402 0.200694 0.29489 0.202402 0.316568 0.119726 0.202402 0.0820888 0.224282 0.202402 0.316568 0.224282 0.34682 0.0820888 0.224282 0 0.252626 0.224282 0.34682 0.252626 0.374358 0.316568 0.412791 0.34682 0.44295 0.412791 0.495349 0.44295 0.524319 0.34682 0.44295 0.374358 0.467568 0.44295 0.524319 0.467568 0.547614 
SCALARS solution_1 double 1
LOOKUP_TABLE default
4.0155 3.9531 2.95513 2.75997 0 0.275865 0 0.375914 0 0.212619 0 0.275865 0.212619 0.440563 0.275865 0.553931 0.275865 0.553931 0.375914 0.600709 -0.0745686 0.205354 0.444237 1.4824 -0.475211 -0.0745686 -0.234005 0.444237 -0.712312 -0.445177 -0.475211 -0.0745686 -0.445177 -0.254299 -0.0745686 0.205354 0.375914 0.600709 0.649559 0.940866 -0.93523 -1.14163 -0.713539 -0.976112 -0.713539 -0.976112 -0.448658 -0.782746 -0.713539 -0.448658 -0.445177 -0.254299 -0.93523 -0.713539 -0.712312 -0.445177 0.685741 0.94027 0.872956 1.31522 0.553931 0.872956 0.600709 0.940866 0.440563 0.685741 0.553931 0.872956 2.95513 2.84777 2.42578 2.2346 2.84777 2.75997 2.2346 2.11456 2.2346 2.11456 1.54034 1.4824 2.75394 2.13315 2.93857 2.34955 2.13315 1.4687 2.34955 1.77845 2.93857 2.34955 3.12638 2.56889 2.34955 1.77845 2.56889 2.05486 4.09789 3.04191 4.1202 3.25389 4.1202 3.25389 4.13824 3.47894 0.144255 0.78552 0.205354 0.838849 0.78552 1.54034 0.838849 1.4824 4.0155 3.4934 4.06097 3.27046 3.4934 2.95513 3.27046 2.42578 4.06097 3.27046 4.09789 3.04191 3.27046 2.42578 3.04191 1.79354 -0.448658 -0.611595 -0.225188 -0.441047 -0.611595 -0.782746 -0.441047 -0.669258 -0.225188 -0.441047 0.0625351 -0.22429 -0.441047 -0.669258 -0.22429 -0.536679 0.649559 0.807393 0.968432 1.24081 0.807393 0.940866 1.24081 1.46717 0.968432 1.24081 1.4687 1.77845 1.24081 1.46717 1.77845 2.05486 4.13824 3.47894 4.16723 3.57659 3.47894 2.75394 3.57659 2.93857 4.16723 3.57659 4.21505 3.68314 3.57659 2.93857 3.68314 3.12638 -0.448658 -0.225188 -0.34863 -0.123212 -0.225188 0.0625351 -0.123212 0.144255 -0.34863 -0.123212 -0.254299 -0.0357015 -0.123212 0.144255 -0.0357015 0.205354 0 0.190551 0 0.251648 0.190551 0.375914 0.251648 0.490702 0 0.251648 0 0.341014 0.251648 0.490702 0.341014 0.649559 0.872956 1.08836 0.901221 1.24535 1.08836 1.31522 1.24535 1.63079 0.901221 1.24535 0.940866 1.46717 1.24535 1.63079 1.46717 2.05486 3.04191 2.45745 3.14483 2.61201 2.45745 1.79354 2.61201 1.99863 3.14483 2.61201 3.25389 2.77972 2.61201 1.99863 2.77972 2.24575 1.79354 1.52626 1.99863 1.71989 1.52626 1.21652 1.71989 1.40496 1.99863 1.71989 2.24575 1.96052 1.71989 1.40496 1.96052 1.65055 2.24575 1.96052 2.503 2.21037 1.96052 1.65055 2.21037 1.89858 2.503 2.21037 2.75394 2.45165 2.21037 1.89858 2.45165 2.13315 1.65055 1.31788 1.89858 1.57196 1.31788 1.00499 1.57196 1.25552 1.89858 1.57196 2.13315 1.79914 1.57196 1.25552 1.79914 1.4687 0.0625351 -0.0769156 0.348443 0.155569 -0.0769156 -0.22429 0.155569 -0.048018 0.348443 0.155569 0.773857 0.515517 0.155569 -0.048018 0.515517 0.220182 -0.22429 -0.378295 -0.048018 -0.255612 -0.378295 -0.536679 -0.255612 -0.458868 -0.048018 -0.255612 0.220182 -0.0876677 -0.255612 -0.458868 -0.0876677 -0.367967 0.773857 0.515517 1.29929 1.02791 0.515517 0.220182 1.02791 0.691265 1.29929 1.02791 1.79354 1.52626 1.02791 0.691265 1.52626 1.21652 0.27645 0.534938 0.396578 0.721642 0.534938 0.765331 0.721642 0.981359 0.765331 0.968432 0.981359 1.19991 0.721642 0.981359 1.00499 1.25552 0.981359 1.19991 1.25552 1.4687 2.42578 2.32088 2.12654 1.99471 2.32088 2.2346 1.99471 1.89785 2.12654 1.99471 1.79354 1.63277 1.99471 1.89785 1.63277 1.54034 3.25389 2.77972 3.36617 2.95339 2.77972 2.24575 2.95339 2.503 3.36617 2.95339 3.47894 3.12704 2.95339 2.503 3.12704 2.75394 0.0625351 0.348443 0.10639 0.397876 0.348443 0.773857 0.397876 0.769062 0.10639 0.397876 0.144255 0.441871 0.397876 0.769062 0.441871 0.78552 0.773857 1.29929 0.769062 1.20004 1.29929 1.79354 1.20004 1.63277 0.769062 1.20004 0.78552 1.16132 1.20004 1.63277 1.16132 1.54034 0 0.173616 0 0.213766 0.173616 0.341014 0.213766 0.419057 0 0.213766 0 0.27645 0.213766 0.419057 0.27645 0.534938 0.341014 0.500012 0.419057 0.610836 0.500012 0.649559 0.610836 0.787924 0.419057 0.610836 0.534938 0.765331 0.610836 0.787924 0.765331 0.968432 1.21652 1.03533 1.29895 1.11727 1.03533 0.823905 1.11727 0.911127 1.29895 1.11727 1.40496 1.22923 1.11727 0.911127 1.22923 1.03978 0.823905 0.551161 0.911127 0.669644 0.551161 0 0.669644 0.456173 0.911127 0.669644 1.03978 0.84482 0.669644 0.456173 0.84482 0.683643 1.40496 1.22923 1.52501 1.35602 1.22923 1.03978 1.35602 1.18019 1.52501 1.35602 1.65055 1.48586 1.35602 1.18019 1.48586 1.31788 1.03978 0.84482 1.18019 1.00682 0.84482 0.683643 1.00682 0.857456 1.18019 1.00682 1.31788 1.15307 1.00682 0.857456 1.15307 1.00499 0.220182 0.065469 0.429906 0.235725 0.065469 -0.0876677 0.235725 0.036184 0.429906 0.235725 0.691265 0.48057 0.235725 0.036184 0.48057 0.227419 -0.0876677 -0.233147 0.036184 -0.15043 -0.233147 -0.367967 -0.15043 -0.314617 0.036184 -0.15043 0.227419 -0.0355092 -0.15043 -0.314617 -0.0355092 -0.252292 0.691265 0.48057 0.965163 0.769021 0.48057 0.227419 0.769021 0.524794 0.965163 0.769021 1.21652 1.03533 0.769021 0.524794 1.03533 0.823905 0.227419 -0.0355092 0.524794 0.177146 -0.0355092 -0.252292 0.177146 -0.17298 0.524794 0.177146 0.823905 0.551161 0.177146 -0.17298 0.551161 0 0 0.138763 0 0.163766 0.138763 0.27645 0.163766 0.324577 0 0.163766 0 0.203221 0.163766 0.324577 0.203221 0.396578 0 0.203221 0 0.277782 0.203221 0.396578 0.277782 0.511315 0 0.277782 0 0.456173 0.277782 0.511315 0.456173 0.683643 0.396578 0.569383 0.511315 0.696752 0.569383 0.721642 0.696752 0.852931 0.511315 0.696752 0.683643 0.857456 0.696752 0.852931 0.857456 1.00499 
