# vtk DataFile Version 3.0
#This file was generated by the deal.II library on 2020/5/26 at 18:33:38
ASCII
DATASET UNSTRUCTURED_GRID

POINTS 1012 double
-1 -0.5 0
-1 -1 0
-0.594794 -0.6188 0
-0.5 -1 0
0.75 0 0
0.753902 0.245343 0
0.5 0 0
0.517661 0.266605 0
1 0 0
1 0.25 0
0.75 0 0
0.753902 0.245343 0
1 0.25 0
1 0.5 0
0.753902 0.245343 0
0.727933 0.483829 0
0.753902 0.245343 0
0.727933 0.483829 0
0.517661 0.266605 0
0.549078 0.445837 0
1 -0.75 0
0.647124 -0.712901 0
1 -1 0
0.5 -1 0
1 -0.5 0
0.739181 -0.473895 0
1 -0.75 0
0.647124 -0.712901 0
0.739181 -0.473895 0
0.545836 -0.43419 0
0.647124 -0.712901 0
0.367761 -0.581653 0
0.517661 0.266605 0
0.549078 0.445837 0
0.267855 0.341094 0
0.383304 0.602648 0
1 -0.25 0
1 -1e-08 0
0.755346 -0.24105 0
0.75 -7.5e-09 0
0.755346 -0.24105 0
0.75 -7.5e-09 0
0.517144 -0.253727 0
0.5 -5e-09 0
0.755346 -0.24105 0
0.517144 -0.253727 0
0.739181 -0.473895 0
0.545836 -0.43419 0
1 -0.25 0
0.755346 -0.24105 0
1 -0.5 0
0.739181 -0.473895 0
1 0.75 0
1 1 0
0.645326 0.721511 0
0.5 1 0
0.727933 0.483829 0
0.645326 0.721511 0
0.549078 0.445837 0
0.383304 0.602648 0
1 0.5 0
1 0.75 0
0.727933 0.483829 0
0.645326 0.721511 0
-0.594794 -0.6188 0
-0.547397 -0.8094 0
-0.418835 -0.452068 0
-0.334417 -0.726034 0
-0.547397 -0.8094 0
-0.5 -1 0
-0.334417 -0.726034 0
-0.25 -1 0
-0.334417 -0.726034 0
-0.25 -1 0
-0.121437 -0.642668 0
-2.7528e-12 -1 0
-0.466976 0.442128 0
-0.261011 0.437564 0
-0.483488 0.721064 0
-0.255506 0.718782 0
-0.261011 0.437564 0
-0.0550467 0.433 0
-0.255506 0.718782 0
-0.0275233 0.7165 0
-0.483488 0.721064 0
-0.255506 0.718782 0
-0.5 1 0
-0.25 1 0
-0.255506 0.718782 0
-0.0275233 0.7165 0
-0.25 1 0
2.7528e-12 1 0
-1 0.25 0
-0.677463 0.164198 0
-1 0.5 0
-0.733488 0.471064 0
-1 -0.5 0
-0.797397 -0.5594 0
-1 -0.25 0
-0.709417 -0.351034 0
-0.797397 -0.5594 0
-0.594794 -0.6188 0
-0.709417 -0.351034 0
-0.418835 -0.452068 0
-1 -0.25 0
-0.709417 -0.351034 0
-1 2.7528e-12 0
-0.621437 -0.142668 0
0.517144 -0.253727 0
0.508572 -0.126864 0
0.377008 -0.28072 0
0.376004 -0.14036 0
0.508572 -0.126864 0
0.5 -5e-09 0
0.376004 -0.14036 0
0.375 -3.75e-09 0
0.377008 -0.28072 0
0.376004 -0.14036 0
0.236872 -0.307713 0
0.243436 -0.153857 0
0.376004 -0.14036 0
0.375 -3.75e-09 0
0.243436 -0.153857 0
0.25 -2.5e-09 0
0.267855 0.341094 0
0.325579 0.471871 0
0.106404 0.387047 0
0.149028 0.594186 0
0.325579 0.471871 0
0.383304 0.602648 0
0.149028 0.594186 0
0.191652 0.801324 0
0.106404 0.387047 0
0.149028 0.594186 0
-0.0550467 0.433 0
-0.0275233 0.7165 0
0.149028 0.594186 0
0.191652 0.801324 0
-0.0275233 0.7165 0
2.7528e-12 1 0
-1 0.5 0
-0.733488 0.471064 0
-1 0.75 0
-0.741744 0.735532 0
-0.733488 0.471064 0
-0.466976 0.442128 0
-0.741744 0.735532 0
-0.483488 0.721064 0
-1 0.75 0
-0.741744 0.735532 0
-1 1 0
-0.75 1 0
-0.741744 0.735532 0
-0.483488 0.721064 0
-0.75 1 0
-0.5 1 0
0.517144 -0.253727 0
0.377008 -0.28072 0
0.53149 -0.343959 0
0.416904 -0.394321 0
0.377008 -0.28072 0
0.236872 -0.307713 0
0.416904 -0.394321 0
0.302317 -0.444683 0
0.53149 -0.343959 0
0.416904 -0.394321 0
0.545836 -0.43419 0
0.456799 -0.507922 0
0.416904 -0.394321 0
0.302317 -0.444683 0
0.456799 -0.507922 0
0.367761 -0.581653 0
0.5 0 0
0.508831 0.133303 0
0.375 0 0
0.383879 0.151925 0
0.508831 0.133303 0
0.517661 0.266605 0
0.383879 0.151925 0
0.392758 0.30385 0
0.375 0 0
0.383879 0.151925 0
0.25 0 0
0.258927 0.170547 0
0.383879 0.151925 0
0.392758 0.30385 0
0.258927 0.170547 0
0.267855 0.341094 0
0.645326 0.721511 0
0.572663 0.860755 0
0.514315 0.66208 0
0.382158 0.83104 0
0.572663 0.860755 0
0.5 1 0
0.382158 0.83104 0
0.25 1 0
0.514315 0.66208 0
0.382158 0.83104 0
0.383304 0.602648 0
0.191652 0.801324 0
0.382158 0.83104 0
0.25 1 0
0.191652 0.801324 0
2.7528e-12 1 0
0.647124 -0.712901 0
0.507443 -0.647277 0
0.573562 -0.856451 0
0.378721 -0.823639 0
0.507443 -0.647277 0
0.367761 -0.581653 0
0.378721 -0.823639 0
0.183881 -0.790827 0
0.573562 -0.856451 0
0.378721 -0.823639 0
0.5 -1 0
0.25 -1 0
0.378721 -0.823639 0
0.183881 -0.790827 0
0.25 -1 0
-2.7528e-12 -1 0
-0.64945 0.0107652 0
-0.474175 -0.0463522 0
-0.677463 0.164198 0
-0.516194 0.121297 0
-0.354925 0.0783963 0
-0.273075 0.112922 0
-0.410951 0.260262 0
-0.318534 0.276384 0
-0.273075 0.112922 0
-0.191224 0.147448 0
-0.318534 0.276384 0
-0.226118 0.292506 0
-0.410951 0.260262 0
-0.318534 0.276384 0
-0.466976 0.442128 0
-0.363993 0.439846 0
-0.318534 0.276384 0
-0.226118 0.292506 0
-0.363993 0.439846 0
-0.261011 0.437564 0
-0.191224 0.147448 0
-0.109374 0.181974 0
-0.226118 0.292506 0
-0.133701 0.308628 0
-0.109374 0.181974 0
-0.0275233 0.2165 0
-0.133701 0.308628 0
-0.041285 0.32475 0
-0.226118 0.292506 0
-0.133701 0.308628 0
-0.261011 0.437564 0
-0.158029 0.435282 0
-0.133701 0.308628 0
-0.041285 0.32475 0
-0.158029 0.435282 0
-0.0550467 0.433 0
0.236872 -0.307713 0
0.240154 -0.230785 0
0.116935 -0.302119 0
0.134576 -0.226589 0
0.240154 -0.230785 0
0.243436 -0.153857 0
0.134576 -0.226589 0
0.152218 -0.151059 0
0.116935 -0.302119 0
0.134576 -0.226589 0
-0.00300155 -0.296524 0
0.0289988 -0.222393 0
0.243436 -0.153857 0
0.246718 -0.0769283 0
0.152218 -0.151059 0
0.169859 -0.0755297 0
0.246718 -0.0769283 0
0.25 -2.5e-09 0
0.169859 -0.0755297 0
0.1875 -1.875e-09 0
0.152218 -0.151059 0
0.169859 -0.0755297 0
0.0609992 -0.148262 0
0.0929996 -0.0741311 0
0.169859 -0.0755297 0
0.1875 -1.875e-09 0
0.0929996 -0.0741311 0
0.125 -1.25e-09 0
-0.122938 -0.29093 0
-0.0765787 -0.218197 0
-0.242875 -0.285335 0
-0.182156 -0.214002 0
0.120351 0.0967618 0
0.115702 0.193524 0
0.0532947 0.102506 0
0.0440894 0.205012 0
0.115702 0.193524 0
0.111053 0.290285 0
0.0440894 0.205012 0
0.034884 0.307518 0
0.111053 0.290285 0
0.106404 0.387047 0
0.034884 0.307518 0
0.0256787 0.410024 0
0.0440894 0.205012 0
0.034884 0.307518 0
-0.0275233 0.2165 0
-0.041285 0.32475 0
0.034884 0.307518 0
0.0256787 0.410024 0
-0.041285 0.32475 0
-0.0550467 0.433 0
-0.418835 -0.452068 0
-0.376626 -0.589051 0
-0.330855 -0.368701 0
-0.279391 -0.526526 0
-0.376626 -0.589051 0
-0.334417 -0.726034 0
-0.279391 -0.526526 0
-0.227927 -0.684351 0
-0.330855 -0.368701 0
-0.279391 -0.526526 0
-0.242875 -0.285335 0
-0.182156 -0.464002 0
-0.279391 -0.526526 0
-0.227927 -0.684351 0
-0.182156 -0.464002 0
-0.121437 -0.642668 0
-0.677463 0.164198 0
-0.516194 0.121297 0
-0.705475 0.317631 0
-0.558213 0.288947 0
-0.516194 0.121297 0
-0.354925 0.0783963 0
-0.558213 0.288947 0
-0.410951 0.260262 0
-0.705475 0.317631 0
-0.558213 0.288947 0
-0.733488 0.471064 0
-0.600232 0.456596 0
-0.558213 0.288947 0
-0.410951 0.260262 0
-0.600232 0.456596 0
-0.466976 0.442128 0
0.236872 -0.307713 0
0.116935 -0.302119 0
0.269594 -0.376198 0
0.156657 -0.398149 0
0.116935 -0.302119 0
-0.00300155 -0.296524 0
0.156657 -0.398149 0
0.043719 -0.4201 0
0.269594 -0.376198 0
0.156657 -0.398149 0
0.302317 -0.444683 0
0.196378 -0.494179 0
0.156657 -0.398149 0
0.043719 -0.4201 0
0.196378 -0.494179 0
0.0904396 -0.543675 0
-0.00300155 -0.296524 0
-0.122938 -0.29093 0
0.043719 -0.4201 0
-0.0692186 -0.442051 0
-0.122938 -0.29093 0
-0.242875 -0.285335 0
-0.0692186 -0.442051 0
-0.182156 -0.464002 0
0.043719 -0.4201 0
-0.0692186 -0.442051 0
0.0904396 -0.543675 0
-0.015499 -0.593172 0
-0.0692186 -0.442051 0
-0.182156 -0.464002 0
-0.015499 -0.593172 0
-0.121437 -0.642668 0
0.25 0 0
0.254464 0.0852735 0
0.1875 0 0
0.187407 0.0910176 0
0.254464 0.0852735 0
0.258927 0.170547 0
0.187407 0.0910176 0
0.187315 0.182035 0
0.1875 0 0
0.187407 0.0910176 0
0.125 0 0
0.120351 0.0967618 0
0.187407 0.0910176 0
0.187315 0.182035 0
0.120351 0.0967618 0
0.115702 0.193524 0
0.258927 0.170547 0
0.263391 0.25582 0
0.187315 0.182035 0
0.187222 0.273053 0
0.263391 0.25582 0
0.267855 0.341094 0
0.187222 0.273053 0
0.18713 0.364071 0
0.187315 0.182035 0
0.187222 0.273053 0
0.115702 0.193524 0
0.111053 0.290285 0
0.187222 0.273053 0
0.18713 0.364071 0
0.111053 0.290285 0
0.106404 0.387047 0
-1 2.7528e-12 0
-0.810719 -0.0713339 0
-1 0.125 0
-0.824725 0.0678826 0
-0.810719 -0.0713339 0
-0.621437 -0.142668 0
-0.824725 0.0678826 0
-0.64945 0.0107652 0
-1 0.125 0
-0.824725 0.0678826 0
-1 0.25 0
-0.838731 0.207099 0
-0.824725 0.0678826 0
-0.64945 0.0107652 0
-0.838731 0.207099 0
-0.677463 0.164198 0
0.302317 -0.444683 0
0.196378 -0.494179 0
0.335039 -0.513168 0
0.2361 -0.59021 0
0.196378 -0.494179 0
0.0904396 -0.543675 0
0.2361 -0.59021 0
0.13716 -0.667251 0
0.335039 -0.513168 0
0.2361 -0.59021 0
0.367761 -0.581653 0
0.275821 -0.68624 0
0.2361 -0.59021 0
0.13716 -0.667251 0
0.275821 -0.68624 0
0.183881 -0.790827 0
0.0904396 -0.543675 0
-0.015499 -0.593172 0
0.13716 -0.667251 0
0.0382207 -0.744292 0
-0.015499 -0.593172 0
-0.121437 -0.642668 0
0.0382207 -0.744292 0
-0.0607187 -0.821334 0
0.13716 -0.667251 0
0.0382207 -0.744292 0
0.183881 -0.790827 0
0.0919404 -0.895413 0
0.0382207 -0.744292 0
-0.0607187 -0.821334 0
0.0919404 -0.895413 0
-2.7528e-12 -1 0
-0.709417 -0.351034 0
-0.564126 -0.401551 0
-0.665427 -0.246851 0
-0.498141 -0.307776 0
-0.564126 -0.401551 0
-0.418835 -0.452068 0
-0.498141 -0.307776 0
-0.330855 -0.368701 0
-0.665427 -0.246851 0
-0.498141 -0.307776 0
-0.621437 -0.142668 0
-0.432156 -0.214002 0
-0.498141 -0.307776 0
-0.330855 -0.368701 0
-0.432156 -0.214002 0
-0.242875 -0.285335 0
-0.121437 -0.142668 0
-0.0910781 -0.107001 0
-0.138884 -0.0701387 0
-0.105883 -0.0390728 0
-0.0910781 -0.107001 0
-0.0607187 -0.0713339 0
-0.105883 -0.0390728 0
-0.0728825 -0.00800684 0
-0.156331 0.00239026 0
-0.120689 0.0288552 0
-0.173778 0.0749192 0
-0.135494 0.0967832 0
-0.173778 0.0749192 0
-0.135494 0.0967832 0
-0.191224 0.147448 0
-0.150299 0.164711 0
-0.135494 0.0967832 0
-0.0972101 0.118647 0
-0.150299 0.164711 0
-0.109374 0.181974 0
-0.0850463 0.0553202 0
-0.049404 0.0817851 0
-0.0972101 0.118647 0
-0.0589263 0.140511 0
-0.049404 0.0817851 0
-0.0137617 0.10825 0
-0.0589263 0.140511 0
-0.0206425 0.162375 0
-0.0972101 0.118647 0
-0.0589263 0.140511 0
-0.109374 0.181974 0
-0.0684486 0.199237 0
-0.0589263 0.140511 0
-0.0206425 0.162375 0
-0.0684486 0.199237 0
-0.0275233 0.2165 0
0.0609992 -0.148262 0
0.0769994 -0.111197 0
[...]
POINT_DATA 1012
SCALARS solution_0 double 1
LOOKUP_TABLE default
-0.891082 -1.53193 -1.17815 -1.64636 0.463219 0.52042 0.371456 0.494647 0.541768 0.584763 0.463219 0.52042 0.584763 0.698484 0.52042 0.671557 0.52042 0.671557 0.494647 0.643874 -1.12991 -1.14875 -1.36642 -1.49579 -0.89252 -0.869986 -1.12991 -1.14875 -0.869986 -0.841316 -1.14875 -1.06848 0.494647 0.643874 0.57981 0.814736 -0.677977 -0.520744 -0.624619 -0.445243 -0.624619 -0.445243 -0.617267 -0.357041 -0.624619 -0.617267 -0.869986 -0.841316 -0.677977 -0.624619 -0.89252 -0.869986 0.851725 1.0187 0.864761 1.1244 0.671557 0.864761 0.643874 0.814736 0.698484 0.851725 0.671557 0.864761 -1.17815 -1.42801 -0.988998 -1.36988 -1.42801 -1.64636 -1.36988 -1.6665 -1.36988 -1.6665 -1.2859 -1.64183 0.778347 0.818473 1.08658 1.10055 0.818473 0.806779 1.10055 1.06242 1.08658 1.10055 1.33311 1.33044 1.10055 1.06242 1.33044 1.2841 0.334589 0.270357 0.696491 0.739966 -0.891082 -1.03823 -0.497499 -0.735864 -1.03823 -1.17815 -0.735864 -0.988998 -0.497499 -0.735864 -0.0754658 -0.360996 -0.617267 -0.465846 -0.65972 -0.457375 -0.465846 -0.357041 -0.457375 -0.305275 -0.65972 -0.457375 -0.734539 -0.473372 -0.457375 -0.305275 -0.473372 -0.244801 0.57981 0.70347 0.693613 0.888547 0.70347 0.814736 0.888547 1.05888 0.693613 0.888547 0.806779 1.06242 0.888547 1.05888 1.06242 1.2841 0.696491 0.739966 0.998561 1.05023 0.739966 0.778347 1.05023 1.08658 0.998561 1.05023 1.24813 1.30049 1.05023 1.08658 1.30049 1.33311 -0.617267 -0.65972 -0.729889 -0.811903 -0.65972 -0.734539 -0.811903 -0.912439 -0.729889 -0.811903 -0.841316 -0.950848 -0.811903 -0.912439 -0.950848 -1.06848 0.371456 0.403724 0.3176 0.382342 0.403724 0.494647 0.382342 0.522075 0.3176 0.382342 0.254684 0.384203 0.382342 0.522075 0.384203 0.57981 0.864761 0.991298 0.837384 1.01784 0.991298 1.1244 1.01784 1.2063 0.837384 1.01784 0.814736 1.05888 1.01784 1.2063 1.05888 1.2841 -1.14875 -1.1067 -1.32184 -1.34525 -1.1067 -1.06848 -1.34525 -1.37696 -1.32184 -1.34525 -1.49579 -1.57695 -1.34525 -1.37696 -1.57695 -1.64183 -0.0331588 -0.159436 0.270357 0.225059 0.171065 0.2864 0.527421 0.58643 0.2864 0.403237 0.58643 0.639653 0.527421 0.58643 0.778347 0.801674 0.58643 0.639653 0.801674 0.818473 0.403237 0.499922 0.639653 0.677129 0.499922 0.548142 0.677129 0.686353 0.639653 0.677129 0.818473 0.823132 0.677129 0.686353 0.823132 0.806779 -0.734539 -0.607062 -0.776335 -0.638333 -0.607062 -0.473372 -0.638333 -0.483486 -0.776335 -0.638333 -0.818697 -0.685496 -0.473372 -0.340415 -0.483486 -0.322676 -0.340415 -0.244801 -0.322676 -0.209308 -0.483486 -0.322676 -0.52222 -0.322136 -0.322676 -0.209308 -0.322136 -0.167844 -0.813934 -0.695774 -0.76872 -0.65322 0.284899 0.44045 0.317663 0.496321 0.44045 0.575907 0.496321 0.636032 0.575907 0.693613 0.636032 0.755593 0.496321 0.636032 0.548142 0.686353 0.636032 0.755593 0.686353 0.806779 -0.988998 -1.19353 -0.883345 -1.13096 -1.19353 -1.36988 -1.13096 -1.33312 -0.883345 -1.13096 -0.76872 -1.06269 -1.13096 -1.33312 -1.06269 -1.2859 0.270357 0.225059 0.526159 0.525572 0.225059 0.171065 0.525572 0.527421 0.526159 0.525572 0.739966 0.759786 0.525572 0.527421 0.759786 0.778347 -0.734539 -0.776335 -0.826894 -0.903979 -0.776335 -0.818697 -0.903979 -0.98119 -0.826894 -0.903979 -0.912439 -1.0193 -0.903979 -0.98119 -1.0193 -1.12394 -0.818697 -0.813934 -0.98119 -1.03609 -0.813934 -0.76872 -1.03609 -1.06269 -0.98119 -1.03609 -1.12394 -1.21417 -1.03609 -1.06269 -1.21417 -1.2859 0.254684 0.294176 0.217758 0.281059 0.294176 0.384203 0.281059 0.402142 0.217758 0.281059 0.174621 0.284899 0.281059 0.402142 0.284899 0.44045 0.384203 0.482522 0.402142 0.52192 0.482522 0.57981 0.52192 0.63231 0.402142 0.52192 0.44045 0.575907 0.52192 0.63231 0.575907 0.693613 -0.0754658 -0.201211 0.133783 0.0623786 -0.201211 -0.360996 0.0623786 -0.0331588 0.133783 0.0623786 0.334589 0.307523 0.0623786 -0.0331588 0.307523 0.270357 -0.912439 -1.0193 -0.992463 -1.12607 -1.0193 -1.12394 -1.12607 -1.25448 -0.992463 -1.12607 -1.06848 -1.22606 -1.12607 -1.25448 -1.22606 -1.37696 -1.12394 -1.21417 -1.25448 -1.37132 -1.21417 -1.2859 -1.37132 -1.47388 -1.25448 -1.37132 -1.37696 -1.51635 -1.37132 -1.47388 -1.51635 -1.64183 -0.735864 -0.863307 -0.559634 -0.720583 -0.863307 -0.988998 -0.720583 -0.883345 -0.559634 -0.720583 -0.360996 -0.55666 -0.720583 -0.883345 -0.55666 -0.76872 -0.520206 -0.442665 -0.297324 -0.195724 -0.442665 -0.352224 -0.195724 -0.055643 -0.0115998 0.10593 0.233176 0.314552 0.233176 0.314552 0.403237 0.456019 0.314552 0.386181 0.456019 0.499922 0.227895 0.323656 0.386181 0.43861 0.323656 0.375654 0.43861 0.468214 0.386181 0.43861 0.499922 0.531315 0.43861 0.468214 0.531315 0.548142 -0.52222 -0.425113 -0.546651 -0.450433 -0.425113 -0.322136 -0.450433 -0.335862 -0.546651 -0.450433 -0.556458 -0.471565 -0.450433 -0.335862 -0.471565 -0.363606 -0.322136 -0.225578 -0.335862 -0.215395 -0.225578 -0.167844 -0.215395 -0.143509 -0.335862 -0.215395 -0.363606 -0.219193 -0.215395 -0.143509 -0.219193 -0.11508 -0.556458 -0.471565 -0.544285 -0.466389 -0.544285 -0.466389 -0.520206 -0.442665 -0.466389 -0.374627 -0.442665 -0.352224 0.174621 0.208941 0.149303 0.201065 0.208941 0.284899 0.201065 0.295577 0.149303 0.201065 0.119726 0.203964 0.201065 0.295577 0.203964 0.317663 0.317663 0.41384 0.348226 0.444017 0.41384 0.496321 0.444017 0.525135 0.348226 0.444017 0.375654 0.468214 0.444017 0.525135 0.468214 0.548142 -0.360996 -0.454625 -0.196933 -0.274581 -0.454625 -0.55666 -0.274581 -0.363785 -0.196933 -0.274581 -0.0331588 -0.0914615 -0.274581 -0.363785 -0.0914615 -0.159436 -0.55666 -0.66396 -0.363785 -0.464146 -0.66396 -0.76872 -0.464146 -0.572906 -0.363785 -0.464146 -0.159436 -0.239653 -0.464146 -0.572906 -0.239653 -0.335999 -0.159436 -0.239653 0.0416211 -0.00950485 -0.239653 -0.335999 -0.00950485 -0.072513 0.0416211 -0.00950485 0.225059 0.199024 -0.00950485 -0.072513 0.199024 0.171065 -0.76872 -0.712631 -0.572906 -0.514604 -0.712631 -0.65322 -0.514604 -0.450947 -0.572906 -0.514604 -0.335999 -0.271119 -0.514604 -0.450947 -0.271119 -0.197957 -0.65322 -0.589598 -0.450947 -0.379824 -0.589598 -0.520206 -0.379824 -0.297324 -0.450947 -0.379824 -0.197957 -0.113058 -0.379824 -0.297324 -0.113058 -0.0115998 -0.335999 -0.271119 -0.072513 -0.0051961 -0.271119 -0.197957 -0.0051961 0.0688198 -0.072513 -0.0051961 0.171065 0.227725 -0.0051961 0.0688198 0.227725 0.2864 -0.197957 -0.113058 0.0688198 0.149159 -0.113058 -0.0115998 0.149159 0.233176 0.0688198 0.149159 0.2864 0.345699 0.149159 0.233176 0.345699 0.403237 -0.638333 -0.563027 -0.661765 -0.583608 -0.563027 -0.483486 -0.583608 -0.499082 -0.661765 -0.583608 -0.685496 -0.608405 -0.583608 -0.499082 -0.608405 -0.52222 -0.818697 -0.754812 -0.823766 -0.763859 -0.754812 -0.685496 -0.763859 -0.699151 -0.823766 -0.763859 -0.813934 -0.756478 -0.763859 -0.699151 -0.756478 -0.695774 -0.685496 -0.608405 -0.699151 -0.627842 -0.608405 -0.52222 -0.627842 -0.546651 -0.699151 -0.627842 -0.695774 -0.629574 -0.627842 -0.546651 -0.629574 -0.556458 -0.695774 -0.629574 -0.677791 -0.613939 -0.629574 -0.556458 -0.613939 -0.544285 -0.677791 -0.613939 -0.65322 -0.589598 -0.613939 -0.544285 -0.589598 -0.520206 -0.297324 -0.249378 -0.158451 -0.103558 -0.249378 -0.195724 -0.103558 -0.0403002 -0.158451 -0.103558 -0.0115998 0.0452866 -0.103558 -0.0403002 0.0452866 0.10593 -0.195724 -0.132645 -0.0403002 0.0309174 -0.132645 -0.055643 0.0309174 0.108436 -0.0403002 0.0309174 0.10593 0.167912 0.0309174 0.108436 0.167912 0.227895 -0.352224 -0.298645 -0.222285 -0.150964 -0.298645 -0.236429 -0.150964 -0.0514248 -0.222285 -0.150964 -0.055643 0.0382222 -0.150964 -0.0514248 0.0382222 0.141007 -0.236429 -0.156152 -0.0514248 0.0931806 -0.156152 0 0.0931806 0.175845 -0.0514248 0.0931806 0.141007 0.216684 0.0931806 0.175845 0.216684 0.258481 -0.055643 0.0382222 0.108436 0.184491 0.0382222 0.141007 0.184491 0.248082 0.108436 0.184491 0.227895 0.280642 0.184491 0.248082 0.280642 0.323656 0.141007 0.216684 0.248082 0.293708 0.216684 0.258481 0.293708 0.321554 0.248082 0.293708 0.323656 0.354972 0.293708 0.321554 0.354972 0.375654 0.10593 0.167912 0.22258 0.271057 0.167912 0.227895 0.271057 0.315588 0.22258 0.271057 0.314552 0.352445 0.271057 0.315588 0.352445 0.386181 -0.471565 -0.42131 -0.47251 -0.426344 -0.42131 -0.363606 -0.426344 -0.373897 -0.47251 -0.426344 -0.466389 -0.422779 -0.426344 -0.373897 -0.422779 -0.374627 -0.363606 -0.294629 -0.373897 -0.309753 -0.294629 -0.219193 -0.309753 -0.230425 -0.373897 -0.309753 -0.374627 -0.318048 -0.309753 -0.230425 -0.318048 -0.245356 -0.219193 -0.150062 -0.230425 -0.142989 -0.150062 -0.11508 -0.142989 -0.0983951 -0.230425 -0.142989 -0.245356 -0.14552 -0.142989 -0.0983951 -0.14552 -0.0789032 -0.374627 -0.318048 -0.365591 -0.312603 -0.318048 -0.245356 -0.312603 -0.249751 -0.365591 -0.312603 -0.352224 -0.298645 -0.312603 -0.249751 -0.298645 -0.236429 -0.245356 -0.14552 -0.249751 -0.160527 -0.14552 -0.0789032 -0.160527 -0.054099 -0.249751 -0.160527 -0.236429 -0.156152 -0.160527 -0.054099 -0.156152 0 0.119726 0.146663 0.102368 0.141493 0.146663 0.203964 0.141493 0.210474 0.102368 0.141493 0.0820888 0.142909 0.141493 0.210474 0.142909 0.223732 0.203964 0.261993 0.210474 0.274853 0.261993 0.317663 0.274853 0.332164 0.210474 0.274853 0.223732 0.291048 0.274853 0.332164 0.291048 0.348226 0.0820888 0.142909 0.0562831 0.157557 0.142909 0.223732 0.157557 0.242263 0.0562831 0.157557 0 0.175845 0.157557 0.242263 0.175845 0.258481 0.223732 0.291048 0.242263 0.308068 0.291048 0.348226 0.308068 0.363602 0.242263 0.308068 0.258481 0.321554 0.308068 0.363602 0.321554 0.375654 
SCALARS solution_1 double 1
LOOKUP_TABLE default
4.0155 3.9531 2.95574 2.75997 0 0.275889 0 0.376027 0 0.212619 0 0.275889 0.212619 0.440563 0.275889 0.55397 0.275889 0.55397 0.376027 0.600826 -0.475211 -0.0746728 -0.234005 0.444237 -0.712312 -0.445036 -0.475211 -0.0746728 -0.445036 -0.253776 -0.0746728 0.20659 0.376027 0.600826 0.650168 0.941145 -0.93523 -1.14163 -0.713444 -0.976112 -0.713444 -0.976112 -0.448361 -0.782746 -0.713444 -0.448361 -0.445036 -0.253776 -0.93523 -0.713444 -0.712312 -0.445036 0.685741 0.94027 0.873006 1.31522 0.55397 0.873006 0.600826 0.941145 0.440563 0.685741 0.55397 0.873006 2.95574 2.84815 2.42782 2.23571 2.84815 2.75997 2.23571 2.11456 2.23571 2.11456 1.54206 1.4824 2.75516 2.1353 2.93918 2.35057 2.1353 1.47131 2.35057 1.77952 2.93918 2.35057 3.12638 2.56889 2.35057 1.77952 2.56889 2.05486 4.1202 3.255 4.13824 3.4794 4.0155 3.49369 4.06097 3.27114 3.49369 2.95574 3.27114 2.42782 4.06097 3.27114 4.09789 3.04366 -0.448361 -0.611451 -0.224896 -0.440865 -0.611451 -0.782746 -0.440865 -0.669258 -0.224896 -0.440865 0.0631771 -0.223741 -0.440865 -0.669258 -0.223741 -0.536679 0.650168 0.807833 0.970085 1.24175 0.807833 0.941145 1.24175 1.46756 0.970085 1.24175 1.47131 1.77952 1.24175 1.46756 1.77952 2.05486 4.13824 3.4794 4.16723 3.57682 3.4794 2.75516 3.57682 2.93918 4.16723 3.57682 4.21505 3.68314 3.57682 2.93918 3.68314 3.12638 -0.448361 -0.224896 -0.348218 -0.1227 -0.224896 0.0631771 -0.1227 0.144108 -0.348218 -0.1227 -0.253776 -0.0347956 -0.1227 0.144108 -0.0347956 0.20659 0 0.190615 0 0.251812 0.190615 0.376027 0.251812 0.490962 0 0.251812 0 0.341456 0.251812 0.490962 0.341456 0.650168 0.873006 1.0884 0.901341 1.24549 1.0884 1.31522 1.24549 1.63079 0.901341 1.24549 0.941145 1.46756 1.24549 1.63079 1.46756 2.05486 -0.0746728 0.0548611 0.181093 0.473364 0.0548611 0.20659 0.473364 0.83988 0.181093 0.473364 0.444237 0.915127 0.473364 0.83988 0.915127 1.4824 3.14554 2.61352 3.255 2.78103 2.2486 1.96395 2.50484 2.21283 1.96395 1.65479 2.21283 1.90166 2.50484 2.21283 2.75516 2.45332 2.21283 1.90166 2.45332 2.1353 1.65479 1.32297 1.90166 1.57553 1.32297 1.00961 1.57553 1.25894 1.90166 1.57553 2.1353 1.80171 1.57553 1.25894 1.80171 1.47131 0.0631771 -0.0762407 0.350904 0.157959 -0.0762407 -0.223741 0.157959 -0.0464045 0.350904 0.157959 0.778059 0.520835 -0.223741 -0.377994 -0.0464045 -0.254843 -0.377994 -0.536679 -0.254843 -0.458868 -0.0464045 -0.254843 0.225328 -0.0853898 -0.254843 -0.458868 -0.0853898 -0.367967 1.30384 1.03389 1.7957 1.53065 0.277503 0.536568 0.39953 0.724814 0.536568 0.767096 0.724814 0.984135 0.767096 0.970085 0.984135 1.2022 0.724814 0.984135 1.00961 1.25894 0.984135 1.2022 1.25894 1.47131 2.42782 2.32237 2.12943 1.99691 2.32237 2.23571 1.99691 1.89949 2.12943 1.99691 1.7957 1.63572 1.99691 1.89949 1.63572 1.54206 3.255 2.78103 3.36683 2.95447 2.78103 2.2486 2.95447 2.50484 3.36683 2.95447 3.4794 3.12783 2.95447 2.50484 3.12783 2.75516 0.0631771 0.350904 0.106583 0.399386 0.350904 0.778059 0.399386 0.77196 0.106583 0.399386 0.144108 0.442126 0.399386 0.77196 0.442126 0.787832 0.778059 1.30384 0.77196 1.20374 1.30384 1.7957 1.20374 1.63572 0.77196 1.20374 0.787832 1.16425 1.20374 1.63572 1.16425 1.54206 0 0.173865 0 0.214244 0.173865 0.341456 0.214244 0.419882 0 0.214244 0 0.277503 0.214244 0.419882 0.277503 0.536568 0.341456 0.500574 0.419882 0.611838 0.500574 0.650168 0.611838 0.788965 0.419882 0.611838 0.536568 0.767096 0.611838 0.788965 0.767096 0.970085 4.09789 3.57819 4.11055 3.63668 3.57819 3.04366 3.63668 3.14554 4.11055 3.63668 4.1202 3.69601 3.63668 3.14554 3.69601 3.255 0.144108 0.442126 0.177351 0.480707 0.442126 0.787832 0.480707 0.812033 0.177351 0.480707 0.20659 0.515842 0.480707 0.812033 0.515842 0.83988 0.787832 1.16425 0.812033 1.15637 1.16425 1.54206 1.15637 1.49647 0.812033 1.15637 0.83988 1.16551 1.15637 1.49647 1.16551 1.4824 3.27114 2.8608 3.15737 2.66481 2.8608 2.42782 2.66481 2.12943 3.15737 2.66481 3.04366 2.45983 2.66481 2.12943 2.45983 1.7957 1.2228 1.04308 1.30501 1.12471 1.04308 0.833882 1.12471 0.920594 1.4106 1.23585 1.53 1.36167 1.53 1.36167 1.65479 1.49065 1.36167 1.18643 1.49065 1.32297 1.04761 0.853418 1.18643 1.01318 0.853418 0.690774 1.01318 0.862989 1.18643 1.01318 1.32297 1.15819 1.01318 0.862989 1.15819 1.00961 0.225328 0.0691762 0.436161 0.24243 0.0691762 -0.0853898 0.24243 0.0408747 0.436161 0.24243 0.700606 0.490924 0.24243 0.0408747 0.490924 0.239807 -0.0853898 -0.232191 0.0408747 -0.148585 -0.232191 -0.367967 -0.148585 -0.314617 0.0408747 -0.148585 0.239807 -0.0299395 -0.148585 -0.314617 -0.0299395 -0.252292 0.700606 0.490924 0.972924 0.778409 0.972924 0.778409 1.2228 1.04308 0.778409 0.537947 1.04308 0.833882 0 0.139309 0 0.16468 0.139309 0.277503 0.16468 0.32623 0 0.16468 0 0.205072 0.16468 0.32623 0.205072 0.39953 0.39953 0.57258 0.516232 0.70129 0.57258 0.724814 0.70129 0.856978 0.516232 0.70129 0.690774 0.862989 0.70129 0.856978 0.862989 1.00961 3.04366 2.75918 3.09326 2.82162 2.75918 2.45983 2.82162 2.53423 3.09326 2.82162 3.14554 2.88676 2.82162 2.53423 2.88676 2.61352 2.45983 2.13977 2.53423 2.22664 2.13977 1.7957 2.22664 1.89185 2.53423 2.22664 2.61352 2.32099 2.22664 1.89185 2.32099 2.00222 2.61352 2.32099 2.69615 2.42088 2.32099 2.00222 2.42088 2.12249 2.69615 2.42088 2.78103 2.52443 2.42088 2.12249 2.52443 2.2486 1.7957 1.66726 1.89185 1.75937 1.66726 1.53065 1.75937 1.61883 1.89185 1.75937 2.00222 1.86685 1.75937 1.61883 1.86685 1.72415 1.53065 1.38342 1.61883 1.4683 1.38342 1.2228 1.4683 1.30501 1.61883 1.4683 1.72415 1.57267 1.4683 1.30501 1.57267 1.4106 2.00222 1.86685 2.12249 1.98498 1.86685 1.72415 1.98498 1.84103 2.12249 1.98498 2.2486 2.10903 1.98498 1.84103 2.10903 1.96395 1.72415 1.57267 1.84103 1.68967 1.57267 1.4106 1.68967 1.53 1.84103 1.68967 1.96395 1.81262 1.68967 1.53 1.81262 1.65479 0.157959 0.0564788 0.317616 0.196242 0.0564788 -0.0464045 0.196242 0.0713638 0.317616 0.196242 0.520835 0.377752 0.196242 0.0713638 0.377752 0.225328 0.778059 0.654236 1.03833 0.909872 0.654236 0.520835 0.909872 0.76837 1.03833 0.909872 1.30384 1.17413 0.909872 0.76837 1.17413 1.03389 0.520835 0.377752 0.76837 0.61152 0.377752 0.225328 0.61152 0.436161 0.76837 0.61152 1.03389 0.878158 0.61152 0.436161 0.878158 0.700606 1.03389 0.878158 1.2913 1.14096 0.878158 0.700606 1.14096 0.972924 1.2913 1.14096 1.53065 1.38342 1.14096 0.972924 1.38342 1.2228 1.30501 1.21737 1.35545 1.26857 1.21737 1.12471 1.26857 1.1775 1.35545 1.26857 1.4106 1.32491 1.26857 1.1775 1.32491 1.23585 1.12471 1.02615 1.1775 1.08174 1.02615 0.920594 1.08174 0.98099 1.1775 1.08174 1.23585 1.14332 1.08174 0.98099 1.14332 1.04761 0.833882 0.711379 0.870473 0.749839 0.711379 0.568411 0.749839 0.612619 0.870473 0.749839 0.920594 0.806733 0.749839 0.612619 0.806733 0.684753 0.568411 0.384216 0.612619 0.450987 0.384216 0 0.450987 0.314167 0.612619 0.450987 0.684753 0.562709 0.450987 0.314167 0.562709 0.470167 0.920594 0.806733 0.98099 0.875709 0.806733 0.684753 0.875709 0.768634 0.98099 0.875709 1.04761 0.949827 0.875709 0.768634 0.949827 0.853418 0.684753 0.562709 0.768634 0.668278 0.562709 0.470167 0.668278 0.589419 0.768634 0.668278 0.853418 0.764353 0.668278 0.589419 0.764353 0.690774 1.23585 1.14332 1.29778 1.20825 1.14332 1.04761 1.20825 1.11677 1.29778 1.20825 1.36167 1.27458 1.20825 1.11677 1.27458 1.18643 0.490924 0.370544 0.635159 0.516072 0.370544 0.239807 0.516072 0.380544 0.635159 0.516072 0.778409 0.665776 0.516072 0.380544 0.665776 0.537947 0.239807 0.1027 0.380544 0.226724 0.1027 -0.0299395 0.226724 0.0624142 0.380544 0.226724 0.537947 0.386303 0.226724 0.0624142 0.386303 0.201317 -0.0299395 -0.148909 0.0624142 -0.0904305 -0.148909 -0.252292 -0.0904305 -0.215713 0.0624142 -0.0904305 0.201317 -0.0023222 -0.0904305 -0.215713 -0.0023222 -0.17298 0.537947 0.386303 0.6917 0.555757 0.386303 0.201317 0.555757 0.387512 0.6917 0.555757 0.833882 0.711379 0.555757 0.387512 0.711379 0.568411 0.201317 -0.0023222 0.387512 0.150169 -0.0023222 -0.17298 0.150169 -0.118602 0.387512 0.150169 0.568411 0.384216 0.150169 -0.118602 0.384216 0 0 0.102437 0 0.118801 0.102437 0.205072 0.118801 0.236661 0 0.118801 0 0.144909 0.118801 0.236661 0.144909 0.283769 0.205072 0.304842 0.236661 0.348148 0.304842 0.39953 0.348148 0.451015 0.236661 0.348148 0.283769 0.407504 0.348148 0.451015 0.407504 0.516232 0 0.144909 0 0.194867 0.144909 0.283769 0.194867 0.358493 0 0.194867 0 0.314167 0.194867 0.358493 0.314167 0.470167 0.283769 0.407504 0.358493 0.48807 0.407504 0.516232 0.48807 0.59712 0.358493 0.48807 0.470167 0.589419 0.48807 0.59712 0.589419 0.690774 
