# vtk DataFile Version 3.0
#This file was generated by the deal.II library on 2020/5/26 at 18:33:37
ASCII
DATASET UNSTRUCTURED_GRID

POINTS 556 double
0.517144 -0.253727 0
0.236872 -0.307713 0
0.545836 -0.43419 0
0.367761 -0.581653 0
0.75 0 0
0.753902 0.245343 0
0.5 0 0
0.517661 0.266605 0
1 0 0
1 0.25 0
0.75 0 0
0.753902 0.245343 0
1 0.25 0
1 0.5 0
0.753902 0.245343 0
0.727933 0.483829 0
0.753902 0.245343 0
0.727933 0.483829 0
0.517661 0.266605 0
0.549078 0.445837 0
1 -0.5 0
0.739181 -0.473895 0
1 -0.75 0
0.647124 -0.712901 0
0.739181 -0.473895 0
0.545836 -0.43419 0
0.647124 -0.712901 0
0.367761 -0.581653 0
0.5 0 0
0.517661 0.266605 0
0.25 0 0
0.267855 0.341094 0
0.517661 0.266605 0
0.549078 0.445837 0
0.267855 0.341094 0
0.383304 0.602648 0
1 -0.25 0
1 -1e-08 0
0.755346 -0.24105 0
0.75 -7.5e-09 0
0.755346 -0.24105 0
0.75 -7.5e-09 0
0.517144 -0.253727 0
0.5 -5e-09 0
0.755346 -0.24105 0
0.517144 -0.253727 0
0.739181 -0.473895 0
0.545836 -0.43419 0
1 -0.25 0
0.755346 -0.24105 0
1 -0.5 0
0.739181 -0.473895 0
0.727933 0.483829 0
0.645326 0.721511 0
0.549078 0.445837 0
0.383304 0.602648 0
1 0.5 0
1 0.75 0
0.727933 0.483829 0
0.645326 0.721511 0
-0.594794 -0.6188 0
-0.547397 -0.8094 0
-0.418835 -0.452068 0
-0.334417 -0.726034 0
-0.547397 -0.8094 0
-0.5 -1 0
-0.334417 -0.726034 0
-0.25 -1 0
-1 -0.5 0
-1 -0.75 0
-0.797397 -0.5594 0
-0.773699 -0.7797 0
-1 -0.75 0
-1 -1 0
-0.773699 -0.7797 0
-0.75 -1 0
-0.797397 -0.5594 0
-0.773699 -0.7797 0
-0.594794 -0.6188 0
-0.547397 -0.8094 0
-0.773699 -0.7797 0
-0.75 -1 0
-0.547397 -0.8094 0
-0.5 -1 0
-1 0.5 0
-0.733488 0.471064 0
-1 0.75 0
-0.741744 0.735532 0
-0.733488 0.471064 0
-0.466976 0.442128 0
-0.741744 0.735532 0
-0.483488 0.721064 0
-1 0.75 0
-0.741744 0.735532 0
-1 1 0
-0.75 1 0
-0.741744 0.735532 0
-0.483488 0.721064 0
-0.75 1 0
-0.5 1 0
-0.191224 0.147448 0
-0.0275233 0.2165 0
-0.261011 0.437564 0
-0.0550467 0.433 0
0.236872 -0.307713 0
-0.00300155 -0.296524 0
0.302317 -0.444683 0
0.0904396 -0.543675 0
0.302317 -0.444683 0
0.0904396 -0.543675 0
0.367761 -0.581653 0
0.183881 -0.790827 0
-0.466976 0.442128 0
-0.261011 0.437564 0
-0.483488 0.721064 0
-0.255506 0.718782 0
-0.261011 0.437564 0
-0.0550467 0.433 0
-0.255506 0.718782 0
-0.0275233 0.7165 0
-0.483488 0.721064 0
-0.255506 0.718782 0
-0.5 1 0
-0.25 1 0
-0.255506 0.718782 0
-0.0275233 0.7165 0
-0.25 1 0
2.7528e-12 1 0
0.236872 -0.307713 0
0.243436 -0.153857 0
-0.00300155 -0.296524 0
0.0609992 -0.148262 0
0.243436 -0.153857 0
0.25 -2.5e-09 0
0.0609992 -0.148262 0
0.125 -1.25e-09 0
0.647124 -0.712901 0
0.507443 -0.647277 0
0.573562 -0.856451 0
0.378721 -0.823639 0
0.507443 -0.647277 0
0.367761 -0.581653 0
0.378721 -0.823639 0
0.183881 -0.790827 0
0.573562 -0.856451 0
0.378721 -0.823639 0
0.5 -1 0
0.25 -1 0
0.378721 -0.823639 0
0.183881 -0.790827 0
0.25 -1 0
-2.7528e-12 -1 0
0.25 0 0
0.258927 0.170547 0
0.125 0 0
0.115702 0.193524 0
0.258927 0.170547 0
0.267855 0.341094 0
0.115702 0.193524 0
0.106404 0.387047 0
0.125 0 0
0.115702 0.193524 0
0 0 0
-0.0275233 0.2165 0
0.115702 0.193524 0
0.106404 0.387047 0
-0.0275233 0.2165 0
-0.0550467 0.433 0
0.267855 0.341094 0
0.325579 0.471871 0
0.106404 0.387047 0
0.149028 0.594186 0
0.325579 0.471871 0
0.383304 0.602648 0
0.149028 0.594186 0
0.191652 0.801324 0
0.106404 0.387047 0
0.149028 0.594186 0
-0.0550467 0.433 0
-0.0275233 0.7165 0
0.149028 0.594186 0
0.191652 0.801324 0
-0.0275233 0.7165 0
2.7528e-12 1 0
0.645326 0.721511 0
0.572663 0.860755 0
0.514315 0.66208 0
0.382158 0.83104 0
0.572663 0.860755 0
0.5 1 0
0.382158 0.83104 0
0.25 1 0
0.514315 0.66208 0
0.382158 0.83104 0
0.383304 0.602648 0
0.191652 0.801324 0
0.382158 0.83104 0
0.25 1 0
0.191652 0.801324 0
2.7528e-12 1 0
0.517144 -0.253727 0
0.508572 -0.126864 0
0.377008 -0.28072 0
0.376004 -0.14036 0
0.508572 -0.126864 0
0.5 -5e-09 0
0.376004 -0.14036 0
0.375 -3.75e-09 0
0.377008 -0.28072 0
0.376004 -0.14036 0
0.236872 -0.307713 0
0.243436 -0.153857 0
0.376004 -0.14036 0
0.375 -3.75e-09 0
0.243436 -0.153857 0
0.25 -2.5e-09 0
1 -0.75 0
0.823562 -0.731451 0
1 -0.875 0
0.786781 -0.865725 0
0.823562 -0.731451 0
0.647124 -0.712901 0
0.786781 -0.865725 0
0.573562 -0.856451 0
1 -0.875 0
0.786781 -0.865725 0
1 -1 0
0.75 -1 0
0.786781 -0.865725 0
0.573562 -0.856451 0
0.75 -1 0
0.5 -1 0
1 0.75 0
1 0.875 0
0.822663 0.735755 0
0.786332 0.867878 0
1 0.875 0
1 1 0
0.786332 0.867878 0
0.75 1 0
0.822663 0.735755 0
0.786332 0.867878 0
0.645326 0.721511 0
0.572663 0.860755 0
0.786332 0.867878 0
0.75 1 0
0.572663 0.860755 0
0.5 1 0
-0.709417 -0.351034 0
-0.564126 -0.401551 0
-0.665427 -0.246851 0
-0.498141 -0.307776 0
-0.564126 -0.401551 0
-0.418835 -0.452068 0
-0.498141 -0.307776 0
-0.330855 -0.368701 0
-0.665427 -0.246851 0
-0.498141 -0.307776 0
-0.621437 -0.142668 0
-0.432156 -0.214002 0
-0.498141 -0.307776 0
-0.330855 -0.368701 0
-0.432156 -0.214002 0
-0.242875 -0.285335 0
-1 2.7528e-12 0
-0.810719 -0.0713339 0
-1 0.125 0
-0.824725 0.0678826 0
-0.810719 -0.0713339 0
-0.621437 -0.142668 0
-0.824725 0.0678826 0
-0.64945 0.0107652 0
-1 0.125 0
-0.824725 0.0678826 0
-1 0.25 0
-0.838731 0.207099 0
-0.824725 0.0678826 0
-0.64945 0.0107652 0
-0.838731 0.207099 0
-0.677463 0.164198 0
-0.64945 0.0107652 0
-0.474175 -0.0463522 0
-0.677463 0.164198 0
-0.516194 0.121297 0
-0.677463 0.164198 0
-0.516194 0.121297 0
-0.705475 0.317631 0
-0.558213 0.288947 0
-0.516194 0.121297 0
-0.354925 0.0783963 0
-0.558213 0.288947 0
-0.410951 0.260262 0
-0.705475 0.317631 0
-0.558213 0.288947 0
-0.733488 0.471064 0
-0.600232 0.456596 0
-0.558213 0.288947 0
-0.410951 0.260262 0
-0.600232 0.456596 0
-0.466976 0.442128 0
-0.242875 -0.285335 0
-0.182156 -0.214002 0
-0.2989 -0.10347 0
-0.227616 -0.0505397 0
-0.182156 -0.214002 0
-0.121437 -0.142668 0
-0.227616 -0.0505397 0
-0.156331 0.00239026 0
-0.2989 -0.10347 0
-0.227616 -0.0505397 0
-0.354925 0.0783963 0
-0.273075 0.112922 0
-0.227616 -0.0505397 0
-0.156331 0.00239026 0
-0.273075 0.112922 0
-0.191224 0.147448 0
-0.418835 -0.452068 0
-0.376626 -0.589051 0
-0.330855 -0.368701 0
-0.279391 -0.526526 0
-0.376626 -0.589051 0
-0.334417 -0.726034 0
-0.279391 -0.526526 0
-0.227927 -0.684351 0
-0.330855 -0.368701 0
-0.279391 -0.526526 0
-0.242875 -0.285335 0
-0.182156 -0.464002 0
-0.279391 -0.526526 0
-0.227927 -0.684351 0
-0.182156 -0.464002 0
-0.121437 -0.642668 0
-0.334417 -0.726034 0
-0.292209 -0.863017 0
-0.227927 -0.684351 0
-0.176464 -0.842175 0
-0.292209 -0.863017 0
-0.25 -1 0
-0.176464 -0.842175 0
-0.125 -1 0
-0.227927 -0.684351 0
-0.176464 -0.842175 0
-0.121437 -0.642668 0
-0.0607187 -0.821334 0
-0.176464 -0.842175 0
-0.125 -1 0
-0.0607187 -0.821334 0
-2.7528e-12 -1 0
-1 -0.5 0
-0.898699 -0.5297 0
-1 -0.375 0
-0.876704 -0.415108 0
-0.898699 -0.5297 0
-0.797397 -0.5594 0
-0.876704 -0.415108 0
-0.753407 -0.455217 0
-1 -0.375 0
-0.876704 -0.415108 0
-1 -0.25 0
-0.854709 -0.300517 0
-0.876704 -0.415108 0
-0.753407 -0.455217 0
-0.854709 -0.300517 0
-0.709417 -0.351034 0
-0.797397 -0.5594 0
-0.696096 -0.5891 0
-0.753407 -0.455217 0
-0.630111 -0.495325 0
-0.696096 -0.5891 0
-0.594794 -0.6188 0
-0.630111 -0.495325 0
-0.506814 -0.535434 0
-0.753407 -0.455217 0
-0.630111 -0.495325 0
-0.709417 -0.351034 0
-0.564126 -0.401551 0
-0.630111 -0.495325 0
-0.506814 -0.535434 0
-0.564126 -0.401551 0
-0.418835 -0.452068 0
-1 -0.25 0
-0.854709 -0.300517 0
-1 -0.125 0
-0.832714 -0.185925 0
-0.854709 -0.300517 0
-0.709417 -0.351034 0
-0.832714 -0.185925 0
-0.665427 -0.246851 0
-1 -0.125 0
-0.832714 -0.185925 0
-1 2.7528e-12 0
-0.810719 -0.0713339 0
-0.832714 -0.185925 0
-0.665427 -0.246851 0
-0.810719 -0.0713339 0
-0.621437 -0.142668 0
-1 0.25 0
-0.838731 0.207099 0
-1 0.375 0
-0.852738 0.346316 0
-0.838731 0.207099 0
-0.677463 0.164198 0
-0.852738 0.346316 0
-0.705475 0.317631 0
-1 0.375 0
-0.852738 0.346316 0
-1 0.5 0
-0.866744 0.485532 0
-0.852738 0.346316 0
-0.705475 0.317631 0
-0.866744 0.485532 0
-0.733488 0.471064 0
-0.121437 -0.142668 0
-0.0607187 -0.0713339 0
-0.156331 0.00239026 0
-0.0850463 0.0553202 0
-0.0607187 -0.0713339 0
0 0 0
-0.0850463 0.0553202 0
-0.0137617 0.10825 0
-0.156331 0.00239026 0
-0.0850463 0.0553202 0
-0.191224 0.147448 0
-0.109374 0.181974 0
-0.0850463 0.0553202 0
-0.0137617 0.10825 0
-0.109374 0.181974 0
-0.0275233 0.2165 0
-0.354925 0.0783963 0
-0.273075 0.112922 0
-0.410951 0.260262 0
-0.318534 0.276384 0
-0.273075 0.112922 0
-0.191224 0.147448 0
-0.318534 0.276384 0
-0.226118 0.292506 0
-0.410951 0.260262 0
-0.318534 0.276384 0
-0.466976 0.442128 0
-0.363993 0.439846 0
-0.318534 0.276384 0
-0.226118 0.292506 0
-0.363993 0.439846 0
-0.261011 0.437564 0
-0.00300155 -0.296524 0
-0.122938 -0.29093 0
0.043719 -0.4201 0
-0.0692186 -0.442051 0
-0.122938 -0.29093 0
-0.242875 -0.285335 0
-0.0692186 -0.442051 0
-0.182156 -0.464002 0
0.043719 -0.4201 0
-0.0692186 -0.442051 0
0.0904396 -0.543675 0
-0.015499 -0.593172 0
-0.0692186 -0.442051 0
-0.182156 -0.464002 0
-0.015499 -0.593172 0
-0.121437 -0.642668 0
0.0904396 -0.543675 0
-0.015499 -0.593172 0
0.13716 -0.667251 0
0.0382207 -0.744292 0
-0.015499 -0.593172 0
-0.121437 -0.642668 0
0.0382207 -0.744292 0
-0.0607187 -0.821334 0
0.13716 -0.667251 0
0.0382207 -0.744292 0
0.183881 -0.790827 0
0.0919404 -0.895413 0
0.0382207 -0.744292 0
-0.0607187 -0.821334 0
0.0919404 -0.895413 0
-2.7528e-12 -1 0
-0.00300155 -0.296524 0
0.0289988 -0.222393 0
-0.122938 -0.29093 0
-0.0765787 -0.218197 0
0.0289988 -0.222393 0
0.0609992 -0.148262 0
-0.0765787 -0.218197 0
-0.0302191 -0.145465 0
-0.122938 -0.29093 0
-0.0765787 -0.218197 0
-0.242875 -0.285335 0
-0.182156 -0.214002 0
-0.0765787 -0.218197 0
-0.0302191 -0.145465 0
-0.182156 -0.214002 0
-0.121437 -0.142668 0
0.0609992 -0.148262 0
0.0929996 -0.0741311 0
-0.0302191 -0.145465 0
0.0161404 -0.0727325 0
0.0929996 -0.0741311 0
0.125 -1.25e-09 0
0.0161404 -0.0727325 0
0.0625 -6.25e-10 0
-0.0302191 -0.145465 0
0.0161404 -0.0727325 0
-0.121437 -0.142668 0
-0.0607187 -0.0713339 0
0.0161404 -0.0727325 0
0.0625 -6.25e-10 0
-0.0607187 -0.0713339 0
0 0 0
-0.621437 -0.142668 0
-0.526797 -0.178335 0
-0.635444 -0.0659513 0
-0.544305 -0.0980641 0
-0.526797 -0.178335 0
-0.432156 -0.214002 0
-0.544305 -0.0980641 0
-0.453166 -0.130177 0
-0.635444 -0.0659513 0
-0.544305 -0.0980641 0
-0.64945 0.0107652 0
-0.561813 -0.0177935 0
-0.544305 -0.0980641 0
-0.453166 -0.130177 0
-0.561813 -0.0177935 0
-0.474175 -0.0463522 0
-0.432156 -0.214002 0
-0.337516 -0.249669 0
-0.453166 -0.130177 0
-0.362027 -0.16229 0
-0.337516 -0.249669 0
-0.242875 -0.285335 0
-0.362027 -0.16229 0
-0.270888 -0.194403 0
-0.453166 -0.130177 0
-0.362027 -0.16229 0
-0.474175 -0.0463522 0
-0.386538 -0.0749109 0
-0.362027 -0.16229 0
-0.270888 -0.194403 0
-0.386538 -0.0749109 0
-0.2989 -0.10347 0
-0.474175 -0.0463522 0
-0.386538 -0.0749109 0
-0.495185 0.0374725 0
-0.411049 0.0124679 0
-0.386538 -0.0749109 0
-0.2989 -0.10347 0
-0.411049 0.0124679 0
-0.326913 -0.0125366 0
-0.495185 0.0374725 0
-0.411049 0.0124679 0
-0.516194 0.121297 0
-0.43556 0.0998467 0
-0.411049 0.0124679 0
-0.326913 -0.0125366 0
-0.43556 0.0998467 0
-0.354925 0.0783963 0

CELLS 139 695
4	0	1	3	2
4	4	5	7	6
4	8	9	11	10
4	12	13	15	14
4	16	17	19	18
4	20	21	23	22
4	24	25	27	26
4	28	29	31	30
4	32	33	35	34
4	36	37	39	38
4	40	41	43	42
4	44	45	47	46
4	48	49	51	50
4	52	53	55	54
4	56	57	59	58
4	60	61	63	62
4	64	65	67	66
4	68	69	71	70
4	72	73	75	74
4	76	77	79	78
4	80	81	83	82
4	84	85	87	86
4	88	89	91	90
4	92	93	95	94
4	96	97	99	98
4	100	101	103	102
4	104	105	107	106
4	108	109	111	110
4	112	113	115	114
4	116	117	119	118
4	120	121	123	122
4	124	125	127	126
4	128	129	131	130
4	132	133	135	134
4	136	137	139	138
4	140	141	143	142
4	144	145	147	146
4	148	149	151	150
4	152	153	155	154
4	156	157	159	158
4	160	161	163	162
4	164	165	167	166
4	168	169	171	170
4	172	173	175	174
4	176	177	179	178
4	180	181	183	182
4	184	185	187	186
4	188	189	191	190
4	192	193	195	194
4	196	197	199	198
4	200	201	203	202
4	204	205	207	206
4	208	209	211	210
4	212	213	215	214
4	216	217	219	218
4	220	221	223	222
4	224	225	227	226
4	228	229	231	230
4	232	233	235	234
4	236	237	239	238
4	240	241	243	242
4	244	245	247	246
4	248	249	251	250
4	252	253	255	254
4	256	257	259	258
4	260	261	263	262
4	264	265	267	266
4	268	269	271	270
4	272	273	275	274
4	276	277	279	278
4	280	281	283	282
4	284	285	287	286
4	288	289	291	290
4	292	293	295	294
4	296	297	299	298
4	300	301	303	302
4	304	305	307	306
4	308	309	311	310
4	312	313	315	314
4	316	317	319	318
4	320	321	323	322
4	324	325	327	326
4	328	329	331	330
4	332	333	335	334
4	336	337	339	338
4	340	341	343	342
4	344	345	347	346
4	348	349	351	350
4	352	353	355	354
4	356	357	359	358
4	360	361	363	362
4	364	365	367	366
4	368	369	371	370
4	372	373	375	374
4	376	377	379	378
4	380	381	383	382
4	384	385	387	386
4	388	389	391	390
4	392	393	395	394
4	396	397	399	398
4	400	401	403	402
4	404	405	407	406
4	408	409	411	410
4	412	413	415	414
4	416	417	419	418
4	420	421	423	422
4	424	425	427	426
4	428	429	431	430
4	432	433	435	434
4	436	437	439	438
4	440	441	443	442
4	444	445	447	446
4	448	449	451	450
4	452	453	455	454
4	456	457	459	458
4	460	461	463	462
4	464	465	467	466
4	468	469	471	470
4	472	473	475	474
4	476	477	479	478
4	480	481	483	482
4	484	485	487	486
4	488	489	491	490
4	492	493	495	494
4	496	497	499	498
4	500	501	503	502
4	504	505	507	506
4	508	509	511	510
4	512	513	515	514
4	516	517	519	518
4	520	521	523	522
4	524	525	527	526
4	528	529	531	530
4	532	533	535	534
4	536	537	539	538
4	540	541	543	542
4	544	545	547	546
4	548	549	551	550
4	552	553	555	554

CELL_TYPES 139
 9 9 9 9 9 9 9 9 9 9 9 9 9 9 9 9 9 9 9 9 9 9 9 9 9 9 9 9 9 9 9 9 9 9 9 9 9 9 9 9 9 9 9 9 9 9 9 9 9 9 9 9 9 9 9 9 9 9 9 9 9 9 9 9 9 9 9 9 9 9 9 9 9 9 9 9 9 9 9 9 9 9 9 9 9 9 9 9 9 9 9 9 9 9 9 9 9 9 9 9 9 9 9 9 9 9 9 9 9 9 9 9 9 9 9 9 9 9 9 9 9 9 9 9 9 9 9 9 9 9 9 9 9 9 9 9 9 9 9
POINT_DATA 556
SCALARS solution_0 double 1
LOOKUP_TABLE default
-0.616651 -0.731933 -0.840414 -1.06713 0.463219 0.519715 0.371456 0.490911 0.541768 0.584763 0.463219 0.519715 0.584763 0.698484 0.519715 0.670895 0.519715 0.670895 0.490911 0.642861 -0.89252 -0.869522 -1.12991 -1.14782 -0.869522 -0.840414 -1.14782 -1.06713 0.371456 0.490911 0.254684 0.582184 0.490911 0.642861 0.582184 0.813382 -0.677977 -0.520744 -0.624347 -0.445243 -0.624347 -0.445243 -0.616651 -0.357041 -0.624347 -0.616651 -0.869522 -0.840414 -0.677977 -0.624347 -0.89252 -0.869522 0.670895 0.863801 0.642861 0.813382 0.698484 0.851725 0.670895 0.863801 -1.17931 -1.42894 -0.990708 -1.37098 -1.42894 -1.64636 -1.37098 -1.6665 -0.891082 -1.23584 -1.03867 -1.33822 -1.23584 -1.53193 -1.33822 -1.59571 -1.03867 -1.33822 -1.17931 -1.42894 -1.33822 -1.59571 -1.42894 -1.64636 0.696491 0.740735 0.998561 1.05083 0.740735 0.779133 1.05083 1.08733 0.998561 1.05083 1.24813 1.30049 1.05083 1.08733 1.30049 1.33311 0.408479 0.530837 0.817825 0.804241 -0.731933 -0.817697 -0.910441 -1.12241 -0.910441 -1.12241 -1.06713 -1.37569 0.779133 0.817825 1.08733 1.10069 0.817825 0.804241 1.10069 1.0614 1.08733 1.10069 1.33311 1.33044 1.10069 1.0614 1.33044 1.2841 -0.731933 -0.47133 -0.817697 -0.52262 -0.47133 -0.244801 -0.52262 -0.167844 -1.14782 -1.10554 -1.32148 -1.34433 -1.10554 -1.06713 -1.34433 -1.37569 -1.32148 -1.34433 -1.49579 -1.57695 -1.34433 -1.37569 -1.57695 -1.64183 0.254684 0.378057 0.174621 0.435514 0.378057 0.582184 0.435514 0.689563 0.174621 0.435514 0 0.530837 0.435514 0.689563 0.530837 0.804241 0.582184 0.701778 0.689563 0.886372 0.701778 0.813382 0.886372 1.05766 0.689563 0.886372 0.804241 1.0614 0.886372 1.05766 1.0614 1.2841 0.863801 0.990934 0.836179 1.01694 0.990934 1.1244 1.01694 1.2063 0.836179 1.01694 0.813382 1.05766 1.01694 1.2063 1.05766 1.2841 -0.616651 -0.465678 -0.658571 -0.456706 -0.465678 -0.357041 -0.456706 -0.305275 -0.658571 -0.456706 -0.731933 -0.47133 -0.456706 -0.305275 -0.47133 -0.244801 -1.12991 -1.1366 -1.2492 -1.28112 -1.1366 -1.14782 -1.28112 -1.32148 -1.2492 -1.28112 -1.36642 -1.42199 -1.28112 -1.32148 -1.42199 -1.49579 0.851725 0.934634 0.855003 0.957537 0.934634 1.0187 0.957537 1.05968 0.855003 0.957537 0.863801 0.990934 0.957537 1.05968 0.990934 1.1244 -0.737339 -0.865004 -0.561203 -0.722583 -0.865004 -0.990708 -0.722583 -0.885446 -0.561203 -0.722583 -0.362572 -0.559086 -0.722583 -0.885446 -0.559086 -0.771219 -0.0754658 -0.201809 0.133783 0.0618217 -0.201809 -0.362572 0.0618217 -0.0338902 0.133783 0.0618217 0.334589 0.307488 0.0618217 -0.0338902 0.307488 0.270155 -0.0338902 -0.161277 0.270155 0.224866 0.270155 0.224866 0.526632 0.526272 0.224866 0.170687 0.526272 0.528071 0.526632 0.526272 0.740735 0.760513 0.526272 0.528071 0.760513 0.779133 -0.771219 -0.656355 -0.340243 -0.202356 -0.656355 -0.523773 -0.202356 -0.0204824 -0.340243 -0.202356 0.170687 0.288415 -0.202356 -0.0204824 0.288415 0.408479 -0.990708 -1.195 -0.885446 -1.13223 -1.195 -1.37098 -1.13223 -1.33369 -0.885446 -1.13223 -0.771219 -1.06358 -1.13223 -1.33369 -1.06358 -1.28573 -1.37098 -1.52658 -1.33369 -1.50649 -1.52658 -1.6665 -1.50649 -1.66007 -1.33369 -1.50649 -1.28573 -1.47348 -1.50649 -1.66007 -1.47348 -1.64183 -0.891082 -0.965776 -0.699717 -0.797306 -0.965776 -1.03867 -0.797306 -0.895225 -0.699717 -0.797306 -0.497499 -0.614098 -0.797306 -0.895225 -0.614098 -0.737339 -1.03867 -1.11008 -0.895225 -0.992965 -1.11008 -1.17931 -0.992965 -1.08781 -0.895225 -0.992965 -0.737339 -0.865004 -0.992965 -1.08781 -0.865004 -0.990708 -0.497499 -0.614098 -0.287787 -0.415132 -0.614098 -0.737339 -0.415132 -0.561203 -0.287787 -0.415132 -0.0754658 -0.201809 -0.415132 -0.561203 -0.201809 -0.362572 0.334589 0.307488 0.522904 0.526761 0.307488 0.270155 0.526761 0.526632 0.522904 0.526761 0.696491 0.720038 0.526761 0.526632 0.720038 0.740735 -0.523773 -0.355185 -0.0204824 0.226726 -0.355185 0 0.226726 0.383243 -0.0204824 0.226726 0.408479 0.499486 0.226726 0.383243 0.499486 0.530837 0.170687 0.288415 0.528071 0.586779 0.288415 0.408479 0.586779 0.639909 0.528071 0.586779 0.779133 0.802233 0.586779 0.639909 0.802233 0.817825 -0.817697 -0.815448 -0.979594 -1.03566 -0.815448 -0.771219 -1.03566 -1.06358 -0.979594 -1.03566 -1.12241 -1.21341 -1.03566 -1.06358 -1.21341 -1.28573 -1.12241 -1.21341 -1.25324 -1.37058 -1.21341 -1.28573 -1.37058 -1.47348 -1.25324 -1.37058 -1.37569 -1.51555 -1.37058 -1.47348 -1.51555 -1.64183 -0.817697 -0.683477 -0.815448 -0.696509 -0.683477 -0.52262 -0.696509 -0.555317 -0.815448 -0.696509 -0.771219 -0.656355 -0.696509 -0.555317 -0.656355 -0.523773 -0.52262 -0.316106 -0.555317 -0.355107 -0.316106 -0.167844 -0.355107 -0.11508 -0.555317 -0.355107 -0.523773 -0.355185 -0.355107 -0.11508 -0.355185 0 -0.362572 -0.456664 -0.197882 -0.276362 -0.456664 -0.559086 -0.276362 -0.366039 -0.197882 -0.276362 -0.0338902 -0.092694 -0.276362 -0.366039 -0.092694 -0.161277 -0.559086 -0.666595 -0.366039 -0.46709 -0.666595 -0.771219 -0.46709 -0.575582 -0.366039 -0.46709 -0.161277 -0.24168 -0.46709 -0.575582 -0.24168 -0.340243 -0.161277 -0.24168 0.0403571 -0.0118417 -0.24168 -0.340243 -0.0118417 -0.0751382 0.0403571 -0.0118417 0.224866 0.198605 -0.0118417 -0.0751382 0.198605 0.170687 
SCALARS solution_1 double 1
LOOKUP_TABLE default
-0.447958 0.0601721 -0.254434 0.205372 0 0.275764 0 0.375427 0 0.212619 0 0.275764 0.212619 0.440563 0.275764 0.553751 0.275764 0.553751 0.375427 0.600226 -0.712312 -0.445217 -0.475211 -0.0756431 -0.445217 -0.254434 -0.0756431 0.205372 0 0.375427 0 0.648391 0.375427 0.600226 0.648391 0.94016 -0.93523 -1.14163 -0.713472 -0.976112 -0.713472 -0.976112 -0.447958 -0.782746 -0.713472 -0.447958 -0.445217 -0.254434 -0.93523 -0.713472 -0.712312 -0.445217 0.553751 0.87189 0.600226 0.94016 0.440563 0.685741 0.553751 0.87189 2.95357 2.84686 2.42332 2.23288 2.84686 2.75997 2.23288 2.11456 4.0155 3.97619 3.49295 3.42773 3.97619 3.9531 3.42773 3.37839 3.49295 3.42773 2.95357 2.84686 3.42773 3.37839 2.84686 2.75997 4.13824 3.47809 4.16723 3.57611 3.47809 2.75147 3.57611 2.93735 4.16723 3.57611 4.21505 3.68314 3.57611 2.93735 3.68314 3.12638 1.64176 0.983497 2.12862 1.46294 0.0601721 0.765602 0.142689 0.783581 0.142689 0.783581 0.205372 0.838272 2.75147 2.12862 2.93735 2.34743 2.12862 1.46294 2.34743 1.77617 2.93735 2.34743 3.12638 2.56889 2.34743 1.77617 2.56889 2.05486 0.0601721 -0.223975 0.765602 0.214452 -0.223975 -0.536679 0.214452 -0.367967 -0.0756431 0.0541508 0.180739 0.472798 0.0541508 0.205372 0.472798 0.838272 0.180739 0.472798 0.444237 0.915127 0.472798 0.838272 0.915127 1.4824 0 0.3399 0 0.526609 0.3399 0.648391 0.526609 0.965161 0 0.526609 0 0.983497 0.526609 0.965161 0.983497 1.46294 0.648391 0.806413 0.965161 1.23881 0.806413 0.94016 1.23881 1.4663 0.965161 1.23881 1.46294 1.77617 1.23881 1.4663 1.77617 2.05486 0.87189 1.08798 0.900717 1.24498 1.08798 1.31522 1.24498 1.63079 0.900717 1.24498 0.94016 1.4663 1.24498 1.63079 1.4663 2.05486 -0.447958 -0.611776 -0.225962 -0.441368 -0.611776 -0.782746 -0.441368 -0.669258 -0.225962 -0.441368 0.0601721 -0.223975 -0.441368 -0.669258 -0.223975 -0.536679 -0.475211 -0.283295 -0.354482 -0.106831 -0.283295 -0.0756431 -0.106831 0.180739 -0.354482 -0.106831 -0.234005 0.0678098 -0.106831 0.180739 0.0678098 0.444237 0.685741 0.812438 0.774257 0.934076 0.812438 0.94027 0.934076 1.0939 0.774257 0.934076 0.87189 1.08798 0.934076 1.0939 1.08798 1.31522 3.26964 2.85798 3.15492 2.66081 2.85798 2.42332 2.66081 2.12307 3.15492 2.66081 3.03987 2.45434 2.66081 2.12307 2.45434 1.78645 4.09789 3.5771 4.11055 3.63528 3.5771 3.03987 3.63528 3.14316 4.11055 3.63528 4.1202 3.69476 3.63528 3.14316 3.69476 3.25256 3.14316 2.60847 3.25256 2.77677 3.25256 2.77677 3.36508 2.9512 2.77677 2.2412 2.9512 2.49937 3.36508 2.9512 3.47809 3.12553 2.9512 2.49937 3.12553 2.75147 1.78645 1.51812 1.99315 1.71197 1.51812 1.20493 1.71197 1.39356 1.99315 1.71197 2.2412 1.95419 1.71197 1.39356 1.95419 1.64176 2.42332 2.31861 2.12307 1.99151 2.31861 2.23288 1.99151 1.89583 2.12307 1.99151 1.78645 1.62818 1.99151 1.89583 1.62818 1.53732 2.23288 2.16558 1.89583 1.83191 2.16558 2.11456 1.83191 1.79352 1.89583 1.83191 1.53732 1.49439 1.83191 1.79352 1.49439 1.4824 4.0155 3.75521 4.03839 3.71128 3.75521 3.49295 3.71128 3.38268 4.03839 3.71128 4.06097 3.66652 3.71128 3.38268 3.66652 3.26964 3.49295 3.2263 3.38268 3.04625 3.2263 2.95357 3.04625 2.69809 3.38268 3.04625 3.26964 2.85798 3.04625 2.69809 2.85798 2.42332 4.06097 3.66652 4.08126 3.62148 3.66652 3.26964 3.62148 3.15492 4.08126 3.62148 4.09789 3.5771 3.62148 3.15492 3.5771 3.03987 4.1202 3.69476 4.12871 3.75469 3.69476 3.25256 3.75469 3.36508 4.12871 3.75469 4.13824 3.81491 3.75469 3.36508 3.81491 3.47809 1.20493 0.801451 1.39356 1.02052 0.801451 0 1.02052 0.676678 1.39356 1.02052 1.64176 1.30916 1.02052 0.676678 1.30916 0.983497 2.2412 1.95419 2.49937 2.2057 1.95419 1.64176 2.2057 1.89271 2.49937 2.2057 2.75147 2.44834 2.2057 1.89271 2.44834 2.12862 0.765602 1.29136 0.765208 1.19502 1.29136 1.78645 1.19502 1.62818 0.765208 1.19502 0.783581 1.15902 1.19502 1.62818 1.15902 1.53732 0.783581 1.15902 0.809292 1.15359 1.15902 1.53732 1.15359 1.49439 0.809292 1.15359 0.838272 1.16456 1.15359 1.49439 1.16456 1.4824 0.765602 0.507325 1.29136 1.0175 0.507325 0.214452 1.0175 0.678827 1.29136 1.0175 1.78645 1.51812 1.0175 0.678827 1.51812 1.20493 0.214452 -0.088613 0.678827 0.211811 -0.088613 -0.367967 0.211811 -0.252292 0.678827 0.211811 1.20493 0.801451 0.211811 -0.252292 0.801451 0 3.03987 2.75507 3.09062 2.81757 2.75507 2.45434 2.81757 2.52892 3.09062 2.81757 3.14316 2.88302 2.81757 2.52892 2.88302 2.60847 2.45434 2.13261 2.52892 2.21957 2.13261 1.78645 2.21957 1.88243 2.52892 2.21957 2.60847 2.3142 2.21957 1.88243 2.3142 1.99315 2.60847 2.3142 2.69145 2.41464 2.3142 1.99315 2.41464 2.11409 2.69145 2.41464 2.77677 2.5188 2.41464 2.11409 2.5188 2.2412 
