# vtk DataFile Version 3.0
#This file was generated by the deal.II library on 2020/5/26 at 18:33:36
ASCII
DATASET UNSTRUCTURED_GRID

POINTS 340 double
0.517144 -0.253727 0
0.236872 -0.307713 0
0.545836 -0.43419 0
0.367761 -0.581653 0
0.517144 -0.253727 0
0.5 -5e-09 0
0.236872 -0.307713 0
0.25 -2.5e-09 0
0.75 0 0
0.753902 0.245343 0
0.5 0 0
0.517661 0.266605 0
1 0 0
1 0.25 0
0.75 0 0
0.753902 0.245343 0
1 0.25 0
1 0.5 0
0.753902 0.245343 0
0.727933 0.483829 0
0.753902 0.245343 0
0.727933 0.483829 0
0.517661 0.266605 0
0.549078 0.445837 0
1 -0.75 0
0.647124 -0.712901 0
1 -1 0
0.5 -1 0
1 -0.5 0
0.739181 -0.473895 0
1 -0.75 0
0.647124 -0.712901 0
0.739181 -0.473895 0
0.545836 -0.43419 0
0.647124 -0.712901 0
0.367761 -0.581653 0
0.5 0 0
0.517661 0.266605 0
0.25 0 0
0.267855 0.341094 0
0.517661 0.266605 0
0.549078 0.445837 0
0.267855 0.341094 0
0.383304 0.602648 0
1 -0.25 0
1 -1e-08 0
0.755346 -0.24105 0
0.75 -7.5e-09 0
0.755346 -0.24105 0
0.75 -7.5e-09 0
0.517144 -0.253727 0
0.5 -5e-09 0
0.755346 -0.24105 0
0.517144 -0.253727 0
0.739181 -0.473895 0
0.545836 -0.43419 0
1 -0.25 0
0.755346 -0.24105 0
1 -0.5 0
0.739181 -0.473895 0
1 0.75 0
1 1 0
0.645326 0.721511 0
0.5 1 0
0.727933 0.483829 0
0.645326 0.721511 0
0.549078 0.445837 0
0.383304 0.602648 0
1 0.5 0
1 0.75 0
0.727933 0.483829 0
0.645326 0.721511 0
-0.594794 -0.6188 0
-0.547397 -0.8094 0
-0.418835 -0.452068 0
-0.334417 -0.726034 0
-0.547397 -0.8094 0
-0.5 -1 0
-0.334417 -0.726034 0
-0.25 -1 0
-0.418835 -0.452068 0
-0.334417 -0.726034 0
-0.242875 -0.285335 0
-0.121437 -0.642668 0
-0.334417 -0.726034 0
-0.25 -1 0
-0.121437 -0.642668 0
-2.7528e-12 -1 0
-1 -0.5 0
-0.797397 -0.5594 0
-1 -0.25 0
-0.709417 -0.351034 0
-0.797397 -0.5594 0
-0.594794 -0.6188 0
-0.709417 -0.351034 0
-0.418835 -0.452068 0
-1 -0.25 0
-0.709417 -0.351034 0
-1 2.7528e-12 0
-0.621437 -0.142668 0
-1 -0.5 0
-1 -0.75 0
-0.797397 -0.5594 0
-0.773699 -0.7797 0
-1 -0.75 0
-1 -1 0
-0.773699 -0.7797 0
-0.75 -1 0
-0.797397 -0.5594 0
-0.773699 -0.7797 0
-0.594794 -0.6188 0
-0.547397 -0.8094 0
-0.773699 -0.7797 0
-0.75 -1 0
-0.547397 -0.8094 0
-0.5 -1 0
-1 0.5 0
-0.733488 0.471064 0
-1 0.75 0
-0.741744 0.735532 0
-0.733488 0.471064 0
-0.466976 0.442128 0
-0.741744 0.735532 0
-0.483488 0.721064 0
-1 0.75 0
-0.741744 0.735532 0
-1 1 0
-0.75 1 0
-0.741744 0.735532 0
-0.483488 0.721064 0
-0.75 1 0
-0.5 1 0
-1 0.25 0
-0.677463 0.164198 0
-1 0.5 0
-0.733488 0.471064 0
-0.121437 -0.142668 0
0 0 0
-0.191224 0.147448 0
-0.0275233 0.2165 0
-0.354925 0.0783963 0
-0.191224 0.147448 0
-0.466976 0.442128 0
-0.261011 0.437564 0
-0.191224 0.147448 0
-0.0275233 0.2165 0
-0.261011 0.437564 0
-0.0550467 0.433 0
0.236872 -0.307713 0
-0.00300155 -0.296524 0
0.302317 -0.444683 0
0.0904396 -0.543675 0
-0.00300155 -0.296524 0
-0.242875 -0.285335 0
0.0904396 -0.543675 0
-0.121437 -0.642668 0
0.302317 -0.444683 0
0.0904396 -0.543675 0
0.367761 -0.581653 0
0.183881 -0.790827 0
0.0904396 -0.543675 0
-0.121437 -0.642668 0
0.183881 -0.790827 0
-2.7528e-12 -1 0
-0.466976 0.442128 0
-0.261011 0.437564 0
-0.483488 0.721064 0
-0.255506 0.718782 0
-0.261011 0.437564 0
-0.0550467 0.433 0
-0.255506 0.718782 0
-0.0275233 0.7165 0
-0.483488 0.721064 0
-0.255506 0.718782 0
-0.5 1 0
-0.25 1 0
-0.255506 0.718782 0
-0.0275233 0.7165 0
-0.25 1 0
2.7528e-12 1 0
0.236872 -0.307713 0
0.243436 -0.153857 0
-0.00300155 -0.296524 0
0.0609992 -0.148262 0
0.243436 -0.153857 0
0.25 -2.5e-09 0
0.0609992 -0.148262 0
0.125 -1.25e-09 0
-0.00300155 -0.296524 0
0.0609992 -0.148262 0
-0.242875 -0.285335 0
-0.121437 -0.142668 0
0.0609992 -0.148262 0
0.125 -1.25e-09 0
-0.121437 -0.142668 0
0 0 0
0.647124 -0.712901 0
0.507443 -0.647277 0
0.573562 -0.856451 0
0.378721 -0.823639 0
0.507443 -0.647277 0
0.367761 -0.581653 0
0.378721 -0.823639 0
0.183881 -0.790827 0
0.573562 -0.856451 0
0.378721 -0.823639 0
0.5 -1 0
0.25 -1 0
0.378721 -0.823639 0
0.183881 -0.790827 0
0.25 -1 0
-2.7528e-12 -1 0
0.25 0 0
0.258927 0.170547 0
0.125 0 0
0.115702 0.193524 0
0.258927 0.170547 0
0.267855 0.341094 0
0.115702 0.193524 0
0.106404 0.387047 0
0.125 0 0
0.115702 0.193524 0
0 0 0
-0.0275233 0.2165 0
0.115702 0.193524 0
0.106404 0.387047 0
-0.0275233 0.2165 0
-0.0550467 0.433 0
0.267855 0.341094 0
0.325579 0.471871 0
0.106404 0.387047 0
0.149028 0.594186 0
0.325579 0.471871 0
0.383304 0.602648 0
0.149028 0.594186 0
0.191652 0.801324 0
0.106404 0.387047 0
0.149028 0.594186 0
-0.0550467 0.433 0
-0.0275233 0.7165 0
0.149028 0.594186 0
0.191652 0.801324 0
-0.0275233 0.7165 0
2.7528e-12 1 0
0.645326 0.721511 0
0.572663 0.860755 0
0.514315 0.66208 0
0.382158 0.83104 0
0.572663 0.860755 0
0.5 1 0
0.382158 0.83104 0
0.25 1 0
0.514315 0.66208 0
0.382158 0.83104 0
0.383304 0.602648 0
0.191652 0.801324 0
0.382158 0.83104 0
0.25 1 0
0.191652 0.801324 0
2.7528e-12 1 0
-0.709417 -0.351034 0
-0.564126 -0.401551 0
-0.665427 -0.246851 0
-0.498141 -0.307776 0
-0.564126 -0.401551 0
-0.418835 -0.452068 0
-0.498141 -0.307776 0
-0.330855 -0.368701 0
-0.665427 -0.246851 0
-0.498141 -0.307776 0
-0.621437 -0.142668 0
-0.432156 -0.214002 0
-0.498141 -0.307776 0
-0.330855 -0.368701 0
-0.432156 -0.214002 0
-0.242875 -0.285335 0
-1 2.7528e-12 0
-0.810719 -0.0713339 0
-1 0.125 0
-0.824725 0.0678826 0
-0.810719 -0.0713339 0
-0.621437 -0.142668 0
-0.824725 0.0678826 0
-0.64945 0.0107652 0
-1 0.125 0
-0.824725 0.0678826 0
-1 0.25 0
-0.838731 0.207099 0
-0.824725 0.0678826 0
-0.64945 0.0107652 0
-0.838731 0.207099 0
-0.677463 0.164198 0
-0.621437 -0.142668 0
-0.432156 -0.214002 0
-0.64945 0.0107652 0
-0.474175 -0.0463522 0
-0.432156 -0.214002 0
-0.242875 -0.285335 0
-0.474175 -0.0463522 0
-0.2989 -0.10347 0
-0.64945 0.0107652 0
-0.474175 -0.0463522 0
-0.677463 0.164198 0
-0.516194 0.121297 0
-0.474175 -0.0463522 0
-0.2989 -0.10347 0
-0.516194 0.121297 0
-0.354925 0.0783963 0
-0.677463 0.164198 0
-0.516194 0.121297 0
-0.705475 0.317631 0
-0.558213 0.288947 0
-0.516194 0.121297 0
-0.354925 0.0783963 0
-0.558213 0.288947 0
-0.410951 0.260262 0
-0.705475 0.317631 0
-0.558213 0.288947 0
-0.733488 0.471064 0
-0.600232 0.456596 0
-0.558213 0.288947 0
-0.410951 0.260262 0
-0.600232 0.456596 0
-0.466976 0.442128 0
-0.242875 -0.285335 0
-0.182156 -0.214002 0
-0.2989 -0.10347 0
-0.227616 -0.0505397 0
-0.182156 -0.214002 0
-0.121437 -0.142668 0
-0.227616 -0.0505397 0
-0.156331 0.00239026 0
-0.2989 -0.10347 0
-0.227616 -0.0505397 0
-0.354925 0.0783963 0
-0.273075 0.112922 0
-0.227616 -0.0505397 0
-0.156331 0.00239026 0
-0.273075 0.112922 0
-0.191224 0.147448 0

CELLS 85 425
4	0	1	3	2
4	4	5	7	6
4	8	9	11	10
4	12	13	15	14
4	16	17	19	18
4	20	21	23	22
4	24	25	27	26
4	28	29	31	30
4	32	33	35	34
4	36	37	39	38
4	40	41	43	42
4	44	45	47	46
4	48	49	51	50
4	52	53	55	54
4	56	57	59	58
4	60	61	63	62
4	64	65	67	66
4	68	69	71	70
4	72	73	75	74
4	76	77	79	78
4	80	81	83	82
4	84	85	87	86
4	88	89	91	90
4	92	93	95	94
4	96	97	99	98
4	100	101	103	102
4	104	105	107	106
4	108	109	111	110
4	112	113	115	114
4	116	117	119	118
4	120	121	123	122
4	124	125	127	126
4	128	129	131	130
4	132	133	135	134
4	136	137	139	138
4	140	141	143	142
4	144	145	147	146
4	148	149	151	150
4	152	153	155	154
4	156	157	159	158
4	160	161	163	162
4	164	165	167	166
4	168	169	171	170
4	172	173	175	174
4	176	177	179	178
4	180	181	183	182
4	184	185	187	186
4	188	189	191	190
4	192	193	195	194
4	196	197	199	198
4	200	201	203	202
4	204	205	207	206
4	208	209	211	210
4	212	213	215	214
4	216	217	219	218
4	220	221	223	222
4	224	225	227	226
4	228	229	231	230
4	232	233	235	234
4	236	237	239	238
4	240	241	243	242
4	244	245	247	246
4	248	249	251	250
4	252	253	255	254
4	256	257	259	258
4	260	261	263	262
4	264	265	267	266
4	268	269	271	270
4	272	273	275	274
4	276	277	279	278
4	280	281	283	282
4	284	285	287	286
4	288	289	291	290
4	292	293	295	294
4	296	297	299	298
4	300	301	303	302
4	304	305	307	306
4	308	309	311	310
4	312	313	315	314
4	316	317	319	318
4	320	321	323	322
4	324	325	327	326
4	328	329	331	330
4	332	333	335	334
4	336	337	339	338

CELL_TYPES 85
 9 9 9 9 9 9 9 9 9 9 9 9 9 9 9 9 9 9 9 9 9 9 9 9 9 9 9 9 9 9 9 9 9 9 9 9 9 9 9 9 9 9 9 9 9 9 9 9 9 9 9 9 9 9 9 9 9 9 9 9 9 9 9 9 9 9 9 9 9 9 9 9 9 9 9 9 9 9 9 9 9 9 9 9 9
POINT_DATA 340
SCALARS solution_0 double 1
LOOKUP_TABLE default
-0.612628 -0.731225 -0.838738 -1.06546 -0.612628 -0.357041 -0.731225 -0.244801 0.463219 0.520031 0.371456 0.491689 0.541768 0.584763 0.463219 0.520031 0.584763 0.698484 0.520031 0.670941 0.520031 0.670941 0.491689 0.643082 -1.12991 -1.14724 -1.36642 -1.49579 -0.89252 -0.868533 -1.12991 -1.14724 -0.868533 -0.838738 -1.14724 -1.06546 0.371456 0.491689 0.254684 0.582683 0.491689 0.643082 0.582683 0.813268 -0.677977 -0.520744 -0.623262 -0.445243 -0.623262 -0.445243 -0.612628 -0.357041 -0.623262 -0.612628 -0.868533 -0.838738 -0.677977 -0.623262 -0.89252 -0.868533 0.851725 1.0187 0.863869 1.1244 0.670941 0.863869 0.643082 0.813268 0.698484 0.851725 0.670941 0.863869 -1.17922 -1.42904 -0.988895 -1.37068 -1.42904 -1.64636 -1.37068 -1.6665 -0.988895 -1.37068 -0.769681 -1.28385 -1.37068 -1.6665 -1.28385 -1.64183 -0.891082 -1.03849 -0.497499 -0.73592 -1.03849 -1.17922 -0.73592 -0.988895 -0.497499 -0.73592 -0.0754658 -0.359251 -0.891082 -1.23584 -1.03849 -1.33835 -1.23584 -1.53193 -1.33835 -1.59571 -1.03849 -1.33835 -1.17922 -1.42904 -1.33835 -1.59571 -1.42904 -1.64636 0.696491 0.74224 0.998561 1.05159 0.74224 0.78031 1.05159 1.08849 0.998561 1.05159 1.24813 1.30049 1.05159 1.08849 1.30049 1.33311 0.334589 0.272705 0.696491 0.74224 -0.524557 0 0.430256 0.532721 0.176102 0.430256 0.78031 0.823192 0.430256 0.532721 0.823192 0.806127 -0.731225 -0.810755 -0.908013 -1.11995 -0.810755 -0.769681 -1.11995 -1.28385 -0.908013 -1.11995 -1.06546 -1.37461 -1.11995 -1.28385 -1.37461 -1.64183 0.78031 0.823192 1.08849 1.10206 0.823192 0.806127 1.10206 1.06172 1.08849 1.10206 1.33311 1.33044 1.10206 1.06172 1.33044 1.2841 -0.731225 -0.464104 -0.810755 -0.506486 -0.464104 -0.244801 -0.506486 -0.167844 -0.810755 -0.506486 -0.769681 -0.524557 -0.506486 -0.167844 -0.524557 0 -1.14724 -1.10434 -1.3207 -1.34336 -1.10434 -1.06546 -1.34336 -1.37461 -1.3207 -1.34336 -1.49579 -1.57695 -1.34336 -1.37461 -1.57695 -1.64183 0.254684 0.380063 0.174621 0.437521 0.380063 0.582683 0.437521 0.690568 0.174621 0.437521 0 0.532721 0.437521 0.690568 0.532721 0.806127 0.582683 0.702013 0.690568 0.886451 0.702013 0.813268 0.886451 1.05734 0.690568 0.886451 0.806127 1.06172 0.886451 1.05734 1.06172 1.2841 0.863869 0.99052 0.836101 1.01656 0.99052 1.1244 1.01656 1.2063 0.836101 1.01656 0.813268 1.05734 1.01656 1.2063 1.05734 1.2841 -0.73592 -0.863426 -0.559018 -0.720158 -0.863426 -0.988895 -0.720158 -0.882251 -0.559018 -0.720158 -0.359251 -0.555042 -0.720158 -0.882251 -0.555042 -0.769681 -0.0754658 -0.200351 0.133783 0.0634738 -0.200351 -0.359251 0.0634738 -0.0311657 0.133783 0.0634738 0.334589 0.308961 0.0634738 -0.0311657 0.308961 0.272705 -0.359251 -0.555042 -0.0311657 -0.155368 -0.555042 -0.769681 -0.155368 -0.329099 -0.0311657 -0.155368 0.272705 0.227727 -0.155368 -0.329099 0.227727 0.176102 0.272705 0.227727 0.529291 0.530746 0.227727 0.176102 0.530746 0.533781 0.529291 0.530746 0.74224 0.762909 0.530746 0.533781 0.762909 0.78031 -0.769681 -0.653518 -0.329099 -0.184522 -0.653518 -0.524557 -0.184522 -0.0152967 -0.329099 -0.184522 0.176102 0.293822 -0.184522 -0.0152967 0.293822 0.430256 
SCALARS solution_1 double 1
LOOKUP_TABLE default
-0.44835 0.0591195 -0.25458 0.204797 -0.44835 -0.782746 0.0591195 -0.536679 0 0.275737 0 0.375246 0 0.212619 0 0.275737 0.212619 0.440563 0.275737 0.553751 0.275737 0.553751 0.375246 0.600153 -0.475211 -0.0749741 -0.234005 0.444237 -0.712312 -0.445244 -0.475211 -0.0749741 -0.445244 -0.25458 -0.0749741 0.204797 0 0.375246 0 0.646985 0.375246 0.600153 0.646985 0.939616 -0.93523 -1.14163 -0.713531 -0.976112 -0.713531 -0.976112 -0.44835 -0.782746 -0.713531 -0.44835 -0.445244 -0.25458 -0.93523 -0.713531 -0.712312 -0.445244 0.685741 0.94027 0.872724 1.31522 0.553751 0.872724 0.600153 0.939616 0.440563 0.685741 0.553751 0.872724 2.9525 2.84623 2.42091 2.23153 2.84623 2.75997 2.23153 2.11456 2.42091 2.23153 1.7825 1.53433 2.23153 2.11456 1.53433 1.4824 4.0155 3.49222 4.06097 3.26837 3.49222 2.9525 3.26837 2.42091 4.06097 3.26837 4.09789 3.03908 4.0155 3.97619 3.49222 3.42739 3.97619 3.9531 3.42739 3.37839 3.49222 3.42739 2.9525 2.84623 3.42739 3.37839 2.84623 2.75997 4.13824 3.47717 4.16723 3.57566 3.47717 2.74925 3.57566 2.93616 4.16723 3.57566 4.21505 3.68314 3.57566 2.93616 3.68314 3.12638 4.1202 3.25126 4.13824 3.47717 1.18648 0 1.63032 0.973947 2.2361 1.63032 2.74925 2.12402 1.63032 0.973947 2.12402 1.45752 0.0591195 0.762779 0.141687 0.781056 0.762779 1.7825 0.781056 1.53433 0.141687 0.781056 0.204797 0.837556 0.781056 1.53433 0.837556 1.4824 2.74925 2.12402 2.93616 2.34535 2.12402 1.45752 2.34535 1.77391 2.93616 2.34535 3.12638 2.56889 2.34535 1.77391 2.56889 2.05486 0.0591195 -0.225589 0.762779 0.198067 -0.225589 -0.536679 0.198067 -0.367967 0.762779 0.198067 1.7825 1.18648 0.198067 -0.367967 1.18648 0 -0.0749741 0.0540411 0.18084 0.47255 0.0540411 0.204797 0.47255 0.837556 0.18084 0.47255 0.444237 0.915127 0.47255 0.837556 0.915127 1.4824 0 0.338857 0 0.523268 0.338857 0.646985 0.523268 0.961251 0 0.523268 0 0.973947 0.523268 0.961251 0.973947 1.45752 0.646985 0.805441 0.961251 1.23669 0.805441 0.939616 1.23669 1.46542 0.961251 1.23669 1.45752 1.77391 1.23669 1.46542 1.77391 2.05486 0.872724 1.08817 0.90067 1.24472 1.08817 1.31522 1.24472 1.63079 0.90067 1.24472 0.939616 1.46542 1.24472 1.63079 1.46542 2.05486 3.26837 2.85626 3.15371 2.65847 2.85626 2.42091 2.65847 2.11981 3.15371 2.65847 3.03908 2.45167 2.65847 2.11981 2.45167 1.7825 4.09789 3.57613 4.11055 3.63479 3.57613 3.03908 3.63479 3.14122 4.11055 3.63479 4.1202 3.69437 3.63479 3.14122 3.69437 3.25126 3.03908 2.45167 3.14122 2.60549 2.45167 1.7825 2.60549 1.98804 3.14122 2.60549 3.25126 2.77411 2.60549 1.98804 2.77411 2.2361 3.25126 2.77411 3.36381 2.9491 2.77411 2.2361 2.9491 2.49573 3.36381 2.9491 3.47717 3.12397 2.9491 2.49573 3.12397 2.74925 1.7825 1.51067 1.98804 1.7054 1.51067 1.18648 1.7054 1.3887 1.98804 1.7054 2.2361 1.94759 1.7054 1.3887 1.94759 1.63032 
