# vtk DataFile Version 3.0
#This file was generated by the deal.II library on 2020/5/26 at 18:33:39
ASCII
DATASET UNSTRUCTURED_GRID

POINTS 1624 double
-1 -0.5 0
-1 -1 0
-0.594794 -0.6188 0
-0.5 -1 0
1 0 0
1 0.25 0
0.75 0 0
0.753902 0.245343 0
1 0.25 0
1 0.5 0
0.753902 0.245343 0
0.727933 0.483829 0
1 -0.75 0
0.647124 -0.712901 0
1 -1 0
0.5 -1 0
1 -0.5 0
0.739181 -0.473895 0
1 -0.75 0
0.647124 -0.712901 0
0.739181 -0.473895 0
0.545836 -0.43419 0
0.647124 -0.712901 0
0.367761 -0.581653 0
1 -0.25 0
1 -1e-08 0
0.755346 -0.24105 0
0.75 -7.5e-09 0
1 -0.25 0
0.755346 -0.24105 0
1 -0.5 0
0.739181 -0.473895 0
0.727933 0.483829 0
0.645326 0.721511 0
0.549078 0.445837 0
0.383304 0.602648 0
1 0.5 0
1 0.75 0
0.727933 0.483829 0
0.645326 0.721511 0
-0.594794 -0.6188 0
-0.547397 -0.8094 0
-0.418835 -0.452068 0
-0.334417 -0.726034 0
-0.547397 -0.8094 0
-0.5 -1 0
-0.334417 -0.726034 0
-0.25 -1 0
-0.334417 -0.726034 0
-0.25 -1 0
-0.121437 -0.642668 0
-2.7528e-12 -1 0
-0.483488 0.721064 0
-0.255506 0.718782 0
-0.5 1 0
-0.25 1 0
-0.255506 0.718782 0
-0.0275233 0.7165 0
-0.25 1 0
2.7528e-12 1 0
-1 0.25 0
-0.677463 0.164198 0
-1 0.5 0
-0.733488 0.471064 0
-1 -0.5 0
-0.797397 -0.5594 0
-1 -0.25 0
-0.709417 -0.351034 0
-0.797397 -0.5594 0
-0.594794 -0.6188 0
-0.709417 -0.351034 0
-0.418835 -0.452068 0
0.517144 -0.253727 0
0.508572 -0.126864 0
0.377008 -0.28072 0
0.376004 -0.14036 0
0.508572 -0.126864 0
0.5 -5e-09 0
0.376004 -0.14036 0
0.375 -3.75e-09 0
0.325579 0.471871 0
0.383304 0.602648 0
0.149028 0.594186 0
0.191652 0.801324 0
0.149028 0.594186 0
0.191652 0.801324 0
-0.0275233 0.7165 0
2.7528e-12 1 0
-1 0.5 0
-0.733488 0.471064 0
-1 0.75 0
-0.741744 0.735532 0
-0.733488 0.471064 0
-0.466976 0.442128 0
-0.741744 0.735532 0
-0.483488 0.721064 0
-1 0.75 0
-0.741744 0.735532 0
-1 1 0
-0.75 1 0
-0.741744 0.735532 0
-0.483488 0.721064 0
-0.75 1 0
-0.5 1 0
0.517144 -0.253727 0
0.377008 -0.28072 0
0.53149 -0.343959 0
0.416904 -0.394321 0
0.377008 -0.28072 0
0.236872 -0.307713 0
0.416904 -0.394321 0
0.302317 -0.444683 0
0.53149 -0.343959 0
0.416904 -0.394321 0
0.545836 -0.43419 0
0.456799 -0.507922 0
0.416904 -0.394321 0
0.302317 -0.444683 0
0.456799 -0.507922 0
0.367761 -0.581653 0
0.5 0 0
0.508831 0.133303 0
0.375 0 0
0.383879 0.151925 0
0.508831 0.133303 0
0.517661 0.266605 0
0.383879 0.151925 0
0.392758 0.30385 0
0.645326 0.721511 0
0.572663 0.860755 0
0.514315 0.66208 0
0.382158 0.83104 0
0.572663 0.860755 0
0.5 1 0
0.382158 0.83104 0
0.25 1 0
0.514315 0.66208 0
0.382158 0.83104 0
0.383304 0.602648 0
0.191652 0.801324 0
0.382158 0.83104 0
0.25 1 0
0.191652 0.801324 0
2.7528e-12 1 0
0.647124 -0.712901 0
0.507443 -0.647277 0
0.573562 -0.856451 0
0.378721 -0.823639 0
0.507443 -0.647277 0
0.367761 -0.581653 0
0.378721 -0.823639 0
0.183881 -0.790827 0
0.573562 -0.856451 0
0.378721 -0.823639 0
0.5 -1 0
0.25 -1 0
0.378721 -0.823639 0
0.183881 -0.790827 0
0.25 -1 0
-2.7528e-12 -1 0
0.75 0 0
0.751951 0.122672 0
0.625 0 0
0.630391 0.127987 0
0.751951 0.122672 0
0.753902 0.245343 0
0.630391 0.127987 0
0.635781 0.255974 0
0.625 0 0
0.630391 0.127987 0
0.5 0 0
0.508831 0.133303 0
0.630391 0.127987 0
0.635781 0.255974 0
0.508831 0.133303 0
0.517661 0.266605 0
0.753902 0.245343 0
0.740917 0.364586 0
0.635781 0.255974 0
0.637144 0.360404 0
0.740917 0.364586 0
0.727933 0.483829 0
0.637144 0.360404 0
0.638506 0.464833 0
0.635781 0.255974 0
0.637144 0.360404 0
0.517661 0.266605 0
0.53337 0.356221 0
0.637144 0.360404 0
0.638506 0.464833 0
0.53337 0.356221 0
0.549078 0.445837 0
0.517661 0.266605 0
0.53337 0.356221 0
0.392758 0.30385 0
0.429475 0.414046 0
0.53337 0.356221 0
0.549078 0.445837 0
0.429475 0.414046 0
0.466191 0.524243 0
0.392758 0.30385 0
0.429475 0.414046 0
0.267855 0.341094 0
0.325579 0.471871 0
0.429475 0.414046 0
0.466191 0.524243 0
0.325579 0.471871 0
0.383304 0.602648 0
0.755346 -0.24105 0
0.752673 -0.120525 0
0.636245 -0.247389 0
0.630623 -0.123694 0
0.752673 -0.120525 0
0.75 -7.5e-09 0
0.630623 -0.123694 0
0.625 -6.25e-09 0
0.636245 -0.247389 0
0.630623 -0.123694 0
0.517144 -0.253727 0
0.508572 -0.126864 0
0.630623 -0.123694 0
0.625 -6.25e-09 0
0.508572 -0.126864 0
0.5 -5e-09 0
0.755346 -0.24105 0
0.636245 -0.247389 0
0.747264 -0.357473 0
0.639377 -0.350716 0
0.636245 -0.247389 0
0.517144 -0.253727 0
0.639377 -0.350716 0
0.53149 -0.343959 0
0.747264 -0.357473 0
0.639377 -0.350716 0
0.739181 -0.473895 0
0.642509 -0.454043 0
0.639377 -0.350716 0
0.53149 -0.343959 0
0.642509 -0.454043 0
0.545836 -0.43419 0
1 0.75 0
1 0.875 0
0.822663 0.735755 0
0.786332 0.867878 0
1 0.875 0
1 1 0
0.786332 0.867878 0
0.75 1 0
0.822663 0.735755 0
0.786332 0.867878 0
0.645326 0.721511 0
0.572663 0.860755 0
0.786332 0.867878 0
0.75 1 0
0.572663 0.860755 0
0.5 1 0
-0.64945 0.0107652 0
-0.474175 -0.0463522 0
-0.677463 0.164198 0
-0.516194 0.121297 0
-0.354925 0.0783963 0
-0.273075 0.112922 0
-0.410951 0.260262 0
-0.318534 0.276384 0
-0.273075 0.112922 0
-0.191224 0.147448 0
-0.318534 0.276384 0
-0.226118 0.292506 0
-0.410951 0.260262 0
-0.318534 0.276384 0
-0.466976 0.442128 0
-0.363993 0.439846 0
-0.318534 0.276384 0
-0.226118 0.292506 0
-0.363993 0.439846 0
-0.261011 0.437564 0
-0.191224 0.147448 0
-0.109374 0.181974 0
-0.226118 0.292506 0
-0.133701 0.308628 0
-0.109374 0.181974 0
-0.0275233 0.2165 0
-0.133701 0.308628 0
-0.041285 0.32475 0
-0.226118 0.292506 0
-0.133701 0.308628 0
-0.261011 0.437564 0
-0.158029 0.435282 0
-0.133701 0.308628 0
-0.041285 0.32475 0
-0.158029 0.435282 0
-0.0550467 0.433 0
0.236872 -0.307713 0
0.240154 -0.230785 0
0.116935 -0.302119 0
0.134576 -0.226589 0
0.240154 -0.230785 0
0.243436 -0.153857 0
0.134576 -0.226589 0
0.152218 -0.151059 0
0.116935 -0.302119 0
0.134576 -0.226589 0
-0.00300155 -0.296524 0
0.0289988 -0.222393 0
0.246718 -0.0769283 0
0.25 -2.5e-09 0
0.169859 -0.0755297 0
0.1875 -1.875e-09 0
-0.122938 -0.29093 0
-0.0765787 -0.218197 0
-0.242875 -0.285335 0
-0.182156 -0.214002 0
0.115702 0.193524 0
0.111053 0.290285 0
0.0440894 0.205012 0
0.034884 0.307518 0
0.111053 0.290285 0
0.106404 0.387047 0
0.034884 0.307518 0
0.0256787 0.410024 0
0.0440894 0.205012 0
0.034884 0.307518 0
-0.0275233 0.2165 0
-0.041285 0.32475 0
0.034884 0.307518 0
0.0256787 0.410024 0
-0.041285 0.32475 0
-0.0550467 0.433 0
-0.418835 -0.452068 0
-0.376626 -0.589051 0
-0.330855 -0.368701 0
-0.279391 -0.526526 0
-0.376626 -0.589051 0
-0.334417 -0.726034 0
-0.279391 -0.526526 0
-0.227927 -0.684351 0
-0.330855 -0.368701 0
-0.279391 -0.526526 0
-0.242875 -0.285335 0
-0.182156 -0.464002 0
-0.279391 -0.526526 0
-0.227927 -0.684351 0
-0.182156 -0.464002 0
-0.121437 -0.642668 0
-0.677463 0.164198 0
-0.516194 0.121297 0
-0.705475 0.317631 0
-0.558213 0.288947 0
-0.516194 0.121297 0
-0.354925 0.0783963 0
-0.558213 0.288947 0
-0.410951 0.260262 0
-0.705475 0.317631 0
-0.558213 0.288947 0
-0.733488 0.471064 0
-0.600232 0.456596 0
-0.558213 0.288947 0
-0.410951 0.260262 0
-0.600232 0.456596 0
-0.466976 0.442128 0
0.236872 -0.307713 0
0.116935 -0.302119 0
0.269594 -0.376198 0
0.156657 -0.398149 0
0.269594 -0.376198 0
0.156657 -0.398149 0
0.302317 -0.444683 0
0.196378 -0.494179 0
0.156657 -0.398149 0
0.043719 -0.4201 0
0.196378 -0.494179 0
0.0904396 -0.543675 0
0.043719 -0.4201 0
-0.0692186 -0.442051 0
0.0904396 -0.543675 0
-0.015499 -0.593172 0
-0.0692186 -0.442051 0
-0.182156 -0.464002 0
-0.015499 -0.593172 0
-0.121437 -0.642668 0
0.25 0 0
0.254464 0.0852735 0
0.1875 0 0
0.187407 0.0910176 0
0.254464 0.0852735 0
0.258927 0.170547 0
0.187407 0.0910176 0
0.187315 0.182035 0
0.258927 0.170547 0
0.263391 0.25582 0
0.187315 0.182035 0
0.187222 0.273053 0
0.263391 0.25582 0
0.267855 0.341094 0
0.187222 0.273053 0
0.18713 0.364071 0
0.187315 0.182035 0
0.187222 0.273053 0
0.115702 0.193524 0
0.111053 0.290285 0
0.187222 0.273053 0
0.18713 0.364071 0
0.111053 0.290285 0
0.106404 0.387047 0
-1 2.7528e-12 0
-0.810719 -0.0713339 0
-1 0.125 0
-0.824725 0.0678826 0
-0.810719 -0.0713339 0
-0.621437 -0.142668 0
-0.824725 0.0678826 0
-0.64945 0.0107652 0
-1 0.125 0
-0.824725 0.0678826 0
-1 0.25 0
-0.838731 0.207099 0
-0.824725 0.0678826 0
-0.64945 0.0107652 0
-0.838731 0.207099 0
-0.677463 0.164198 0
0.302317 -0.444683 0
0.196378 -0.494179 0
0.335039 -0.513168 0
0.2361 -0.59021 0
0.196378 -0.494179 0
0.0904396 -0.543675 0
0.2361 -0.59021 0
0.13716 -0.667251 0
0.335039 -0.513168 0
0.2361 -0.59021 0
0.367761 -0.581653 0
0.275821 -0.68624 0
0.2361 -0.59021 0
0.13716 -0.667251 0
0.275821 -0.68624 0
0.183881 -0.790827 0
0.0904396 -0.543675 0
-0.015499 -0.593172 0
0.13716 -0.667251 0
0.0382207 -0.744292 0
-0.015499 -0.593172 0
-0.121437 -0.642668 0
0.0382207 -0.744292 0
-0.0607187 -0.821334 0
0.13716 -0.667251 0
0.0382207 -0.744292 0
0.183881 -0.790827 0
0.0919404 -0.895413 0
0.0382207 -0.744292 0
-0.0607187 -0.821334 0
0.0919404 -0.895413 0
-2.7528e-12 -1 0
-0.709417 -0.351034 0
-0.564126 -0.401551 0
-0.665427 -0.246851 0
-0.498141 -0.307776 0
-0.564126 -0.401551 0
-0.418835 -0.452068 0
-0.498141 -0.307776 0
-0.330855 -0.368701 0
-0.665427 -0.246851 0
-0.498141 -0.307776 0
-0.621437 -0.142668 0
-0.432156 -0.214002 0
-0.498141 -0.307776 0
-0.330855 -0.368701 0
-0.432156 -0.214002 0
-0.242875 -0.285335 0
-0.466976 0.442128 0
-0.363993 0.439846 0
-0.475232 0.581596 0
-0.366745 0.579885 0
-0.363993 0.439846 0
-0.261011 0.437564 0
-0.366745 0.579885 0
-0.258258 0.578173 0
-0.475232 0.581596 0
-0.366745 0.579885 0
-0.483488 0.721064 0
-0.369497 0.719923 0
-0.366745 0.579885 0
-0.258258 0.578173 0
-0.369497 0.719923 0
-0.255506 0.718782 0
-0.261011 0.437564 0
-0.158029 0.435282 0
-0.258258 0.578173 0
-0.149772 0.576462 0
-0.158029 0.435282 0
-0.0550467 0.433 0
-0.149772 0.576462 0
-0.041285 0.57475 0
-0.258258 0.578173 0
-0.149772 0.576462 0
-0.255506 0.718782 0
-0.141514 0.717641 0
-0.149772 0.576462 0
-0.041285 0.57475 0
-0.141514 0.717641 0
-0.0275233 0.7165 0
-1 -0.25 0
-0.854709 -0.300517 0
-1 -0.125 0
-0.832714 -0.185925 0
-0.854709 -0.300517 0
-0.709417 -0.351034 0
-0.832714 -0.185925 0
-0.665427 -0.246851 0
-1 -0.125 0
-0.832714 -0.185925 0
-1 2.7528e-12 0
[...]
POINT_DATA 1624
SCALARS solution_0 double 1
LOOKUP_TABLE default
-0.891082 -1.53193 -1.17823 -1.64636 0.541768 0.584763 0.463219 0.520719 0.584763 0.698484 0.520719 0.671636 -1.12991 -1.14883 -1.36642 -1.49579 -0.89252 -0.870131 -1.12991 -1.14883 -0.870131 -0.841453 -1.14883 -1.0687 -0.677977 -0.520744 -0.624983 -0.445243 -0.677977 -0.624983 -0.89252 -0.870131 0.671636 0.864577 0.64378 0.814698 0.698484 0.851725 0.671636 0.864577 -1.17823 -1.42804 -0.989177 -1.36997 -1.42804 -1.64636 -1.36997 -1.6665 -1.36997 -1.6665 -1.28611 -1.64183 1.08624 1.10042 1.33311 1.33044 1.10042 1.06248 1.33044 1.2841 0.334589 0.269931 0.696491 0.739789 -0.891082 -1.03825 -0.497499 -0.736075 -1.03825 -1.17823 -0.736075 -0.989177 -0.616642 -0.466056 -0.660242 -0.458147 -0.466056 -0.357041 -0.458147 -0.305275 0.703466 0.814698 0.888343 1.05897 0.888343 1.05897 1.06248 1.2841 0.696491 0.739789 0.998561 1.0501 0.739789 0.778125 1.0501 1.08624 0.998561 1.0501 1.24813 1.30049 1.0501 1.08624 1.30049 1.33311 -0.616642 -0.660242 -0.730097 -0.81219 -0.660242 -0.7349 -0.81219 -0.912742 -0.730097 -0.81219 -0.841453 -0.951044 -0.81219 -0.912742 -0.951044 -1.0687 0.371456 0.403532 0.3176 0.382894 0.403532 0.493477 0.382894 0.522068 0.864577 0.991546 0.837311 1.01796 0.991546 1.1244 1.01796 1.2063 0.837311 1.01796 0.814698 1.05897 1.01796 1.2063 1.05897 1.2841 -1.14883 -1.10683 -1.3219 -1.34535 -1.10683 -1.0687 -1.34535 -1.37711 -1.3219 -1.34535 -1.49579 -1.57695 -1.34535 -1.37711 -1.57695 -1.64183 0.463219 0.472775 0.419444 0.437472 0.472775 0.520719 0.437472 0.503132 0.419444 0.437472 0.371456 0.403532 0.437472 0.503132 0.403532 0.493477 0.520719 0.588386 0.503132 0.575654 0.588386 0.671636 0.575654 0.656562 0.503132 0.575654 0.493477 0.567655 0.575654 0.656562 0.567655 0.64378 0.493477 0.567655 0.522068 0.625682 0.567655 0.64378 0.625682 0.723443 0.522068 0.625682 0.579707 0.703466 0.625682 0.723443 0.703466 0.814698 -0.624983 -0.518777 -0.616779 -0.491276 -0.518777 -0.445243 -0.491276 -0.403167 -0.616779 -0.491276 -0.616642 -0.466056 -0.491276 -0.403167 -0.466056 -0.357041 -0.624983 -0.616779 -0.743239 -0.734128 -0.616779 -0.616642 -0.734128 -0.730097 -0.743239 -0.734128 -0.870131 -0.854395 -0.734128 -0.730097 -0.854395 -0.841453 0.851725 0.934634 0.855373 0.957822 0.934634 1.0187 0.957822 1.05968 0.855373 0.957822 0.864577 0.991546 0.957822 1.05968 0.991546 1.1244 -0.0333683 -0.160028 0.269931 0.224529 0.170248 0.285483 0.526927 0.585891 0.285483 0.402297 0.585891 0.639094 0.526927 0.585891 0.778125 0.801173 0.585891 0.639094 0.801173 0.818181 0.402297 0.499171 0.639094 0.676697 0.499171 0.547777 0.676697 0.686082 0.639094 0.676697 0.818181 0.822785 0.676697 0.686082 0.822785 0.806765 -0.7349 -0.607796 -0.776962 -0.639041 -0.607796 -0.473059 -0.639041 -0.484533 -0.776962 -0.639041 -0.81972 -0.686527 -0.34086 -0.244801 -0.323662 -0.209308 -0.814603 -0.696593 -0.769257 -0.653933 0.440188 0.575879 0.496374 0.636009 0.575879 0.693817 0.636009 0.75554 0.496374 0.636009 0.547777 0.686082 0.636009 0.75554 0.686082 0.806765 -0.989177 -1.19366 -0.88367 -1.13115 -1.19366 -1.36997 -1.13115 -1.33326 -0.88367 -1.13115 -0.769257 -1.06291 -1.13115 -1.33326 -1.06291 -1.28611 0.269931 0.224529 0.525841 0.525166 0.224529 0.170248 0.525166 0.526927 0.525841 0.525166 0.739789 0.759556 0.525166 0.526927 0.759556 0.778125 -0.7349 -0.776962 -0.82726 -0.904344 -0.82726 -0.904344 -0.912742 -1.01964 -0.904344 -0.981705 -1.01964 -1.12428 -0.981705 -1.03663 -1.12428 -1.21446 -1.03663 -1.06291 -1.21446 -1.28611 0.254684 0.294058 0.217758 0.281454 0.294058 0.38296 0.281454 0.402088 0.38296 0.482423 0.402088 0.522023 0.482423 0.579707 0.522023 0.63224 0.402088 0.522023 0.440188 0.575879 0.522023 0.63224 0.575879 0.693817 -0.0754658 -0.201317 0.133783 0.0618323 -0.201317 -0.361368 0.0618323 -0.0333683 0.133783 0.0618323 0.334589 0.307223 0.0618323 -0.0333683 0.307223 0.269931 -0.912742 -1.01964 -0.992723 -1.12632 -1.01964 -1.12428 -1.12632 -1.25471 -0.992723 -1.12632 -1.0687 -1.22625 -1.12632 -1.25471 -1.22625 -1.37711 -1.12428 -1.21446 -1.25471 -1.3715 -1.21446 -1.28611 -1.3715 -1.474 -1.25471 -1.3715 -1.37711 -1.51643 -1.3715 -1.474 -1.51643 -1.64183 -0.736075 -0.863518 -0.560004 -0.720824 -0.863518 -0.989177 -0.720824 -0.88367 -0.560004 -0.720824 -0.361368 -0.557085 -0.720824 -0.88367 -0.557085 -0.769257 0.778125 0.801173 0.94294 0.960163 0.801173 0.818181 0.960163 0.968596 0.94294 0.960163 1.08624 1.09848 0.960163 0.968596 1.09848 1.10042 0.818181 0.822785 0.968596 0.963445 0.822785 0.806765 0.963445 0.940528 0.968596 0.963445 1.10042 1.08907 0.963445 0.940528 1.08907 1.06248 -0.497499 -0.613602 -0.287787 -0.414417 -0.613602 -0.736075 -0.414417 -0.560004 -0.287787 -0.414417 -0.0754658 -0.201317 -0.414417 -0.560004 -0.201317 -0.361368 -0.660242 -0.557767 -0.693273 -0.578004 -0.557767 -0.458147 -0.578004 -0.461309 -0.693273 -0.578004 -0.7349 -0.607796 -0.578004 -0.461309 -0.607796 -0.473059 -0.458147 -0.369269 -0.461309 -0.353558 -0.369269 -0.305275 -0.353558 -0.276426 -0.461309 -0.353558 -0.473059 -0.34086 -0.353558 -0.276426 -0.34086 -0.244801 0.579707 0.643693 0.63224 0.71633 0.643693 0.703466 0.71633 0.794196 0.63224 0.71633 0.693817 0.795297 0.71633 0.794196 0.795297 0.888343 0.693817 0.795297 0.75554 0.872377 0.795297 0.888343 0.872377 0.979738 0.75554 0.872377 0.806765 0.940528 0.872377 0.979738 0.940528 1.06248 0.3176 0.333799 0.287586 0.312726 0.333799 0.382894 0.312726 0.379066 0.287586 0.312726 0.254684 0.294058 0.312726 0.379066 0.294058 0.38296 0.382894 0.448739 0.379066 0.461187 0.448739 0.522068 0.461187 0.546864 0.379066 0.461187 0.38296 0.482423 0.461187 0.546864 0.482423 0.579707 -0.521319 -0.444109 -0.298777 -0.197667 -0.0131652 0.104215 0.231911 0.313345 0.231911 0.313345 0.402297 0.455131 0.313345 0.385125 0.455131 0.499171 0.226205 0.322472 0.385125 0.437837 0.322472 0.375153 0.437837 0.467765 0.385125 0.437837 0.499171 0.530733 0.437837 0.467765 0.530733 0.547777 -0.523144 -0.426434 -0.54807 -0.452035 -0.426434 -0.322569 -0.452035 -0.337542 -0.54807 -0.452035 -0.557904 -0.473496 -0.322569 -0.226204 -0.337542 -0.217042 -0.226204 -0.167844 -0.217042 -0.143509 -0.557904 -0.473496 -0.545531 -0.468028 -0.545531 -0.468028 -0.521319 -0.444109 -0.468028 -0.377101 -0.444109 -0.35392 0.174621 0.208573 0.149303 0.201161 0.208573 0.283504 0.201161 0.295416 0.317266 0.413852 0.348086 0.443774 0.413852 0.496374 0.443774 0.524932 0.348086 0.443774 0.375153 0.467765 0.443774 0.524932 0.467765 0.547777 -0.361368 -0.455036 -0.196974 -0.275079 -0.455036 -0.557085 -0.275079 -0.364326 -0.196974 -0.275079 -0.0333683 -0.0918163 -0.275079 -0.364326 -0.0918163 -0.160028 -0.557085 -0.664419 -0.364326 -0.464754 -0.664419 -0.769257 -0.464754 -0.573553 -0.364326 -0.464754 -0.160028 -0.240374 -0.464754 -0.573553 -0.240374 -0.336839 -0.160028 -0.240374 0.0410613 -0.0102334 -0.240374 -0.336839 -0.0102334 -0.073432 0.0410613 -0.0102334 0.224529 0.198364 -0.0102334 -0.073432 0.198364 0.170248 -0.769257 -0.71318 -0.573553 -0.515388 -0.71318 -0.653933 -0.515388 -0.451898 -0.573553 -0.515388 -0.336839 -0.272108 -0.515388 -0.451898 -0.272108 -0.199124 -0.653933 -0.590507 -0.451898 -0.380989 -0.590507 -0.521319 -0.380989 -0.298777 -0.451898 -0.380989 -0.199124 -0.114425 -0.380989 -0.298777 -0.114425 -0.0131652 -0.336839 -0.272108 -0.073432 -0.00622818 -0.272108 -0.199124 -0.00622818 0.0676798 -0.073432 -0.00622818 0.170248 0.226845 -0.00622818 0.0676798 0.226845 0.285483 -0.199124 -0.114425 0.0676798 0.147932 -0.114425 -0.0131652 0.147932 0.231911 0.0676798 0.147932 0.285483 0.344766 0.147932 0.231911 0.344766 0.402297 -0.639041 -0.563843 -0.662628 -0.584481 -0.563843 -0.484533 -0.584481 -0.500068 -0.662628 -0.584481 -0.686527 -0.609502 -0.584481 -0.500068 -0.609502 -0.523144 -0.81972 -0.755809 -0.824514 -0.764662 -0.755809 -0.686527 -0.764662 -0.70016 -0.824514 -0.764662 -0.814603 -0.757277 -0.764662 -0.70016 -0.757277 -0.696593 -0.686527 -0.609502 -0.70016 -0.629043 -0.609502 -0.523144 -0.629043 -0.54807 -0.70016 -0.629043 -0.696593 -0.630667 -0.629043 -0.54807 -0.630667 -0.557904 -0.696593 -0.630667 -0.678642 -0.614929 -0.630667 -0.557904 -0.614929 -0.545531 -0.678642 -0.614929 -0.653933 -0.590507 -0.614929 -0.545531 -0.590507 -0.521319 -0.473059 -0.405101 -0.475953 -0.401944 -0.405101 -0.34086 -0.401944 -0.33112 -0.475953 -0.401944 -0.484533 -0.402992 -0.401944 -0.33112 -0.402992 -0.323662 -0.484533 -0.402992 -0.500068 -0.410268 -0.402992 -0.323662 -0.410268 -0.319554 -0.500068 -0.410268 -0.523144 -0.426434 -0.410268 -0.319554 -0.426434 -0.322569 -0.323662 -0.254913 -0.319554 -0.239816 -0.254913 -0.209308 -0.239816 -0.189528 -0.319554 -0.239816 -0.322569 -0.226204 -0.239816 -0.189528 -0.226204 -0.167844 0.283504 0.363954 0.295416 0.385817 0.363954 0.440188 0.385817 0.466857 0.295416 0.385817 0.317266 0.413852 0.385817 0.466857 0.413852 0.496374 -0.776962 -0.801298 -0.842539 -0.875143 -0.801298 -0.81972 -0.875143 -0.903977 -0.842539 -0.875143 -0.904344 -0.94451 -0.875143 -0.903977 -0.94451 -0.981705 -0.81972 -0.824514 -0.903977 -0.924097 -0.824514 -0.814603 -0.924097 -0.93367 -0.903977 -0.924097 -0.981705 -1.013 -0.924097 -0.93367 -1.013 -1.03663 -0.814603 -0.794403 -0.93367 -0.934012 -0.794403 -0.769257 -0.934012 -0.928134 -0.93367 -0.934012 -1.03663 -1.05275 -0.934012 -0.928134 -1.05275 -1.06291 0.217758 0.234888 0.197179 0.220718 0.234888 0.281454 0.220718 0.279592 0.197179 0.220718 0.174621 0.208573 0.220718 0.279592 0.208573 0.283504 0.281454 0.339902 0.279592 0.348908 0.339902 0.402088 0.348908 0.418428 0.279592 0.348908 0.283504 0.363954 0.348908 0.418428 0.363954 0.440188 -0.298777 -0.25103 -0.16002 -0.105259 -0.25103 -0.197667 -0.105259 -0.042203 -0.16002 -0.105259 -0.0131652 0.0436344 -0.105259 -0.042203 0.0436344 0.104215 -0.197667 -0.134718 -0.042203 0.0290183 -0.134718 -0.0578586 0.0290183 0.106385 -0.042203 0.0290183 0.104215 0.166154 0.0290183 0.106385 0.166154 0.226205 -0.35392 -0.301298 -0.225213 -0.153842 -0.0578586 0.0361954 0.106385 0.182116 0.106385 0.182116 0.226205 0.279176 0.182116 0.246474 0.279176 0.322472 0.215715 0.258115 0.292689 0.320992 0.246474 0.292689 0.322472 0.35413 0.292689 0.320992 0.35413 0.375153 0.104215 0.166154 0.221107 0.269644 0.166154 0.226205 0.269644 0.314292 0.221107 0.269644 0.313345 0.351299 0.269644 0.314292 0.351299 0.385125 -0.473496 -0.423563 -0.474293 -0.428506 -0.423563 -0.365512 -0.428506 -0.376509 -0.474293 -0.428506 -0.468028 -0.424724 -0.428506 -0.376509 -0.424724 -0.377101 -0.365512 -0.297002 -0.376509 -0.313069 -0.297002 -0.220697 -0.313069 -0.233153 -0.376509 -0.313069 -0.377101 -0.321414 -0.220697 -0.151439 -0.233153 -0.145824 -0.151439 -0.11508 -0.145824 -0.0983951 -0.377101 -0.321414 -0.367722 -0.315448 -0.367722 -0.315448 -0.35392 -0.301298 -0.315448 -0.253489 -0.301298 -0.239304 0.119726 0.146103 0.102368 0.141168 0.146103 0.202692 0.141168 0.210081 0.102368 0.141168 0.0820888 0.143216 0.141168 0.210081 0.143216 0.223606 0.202692 0.261994 0.210081 0.274818 0.261994 0.317266 0.274818 0.332044 0.210081 0.274818 0.223606 0.290942 0.274818 0.332044 0.290942 0.348086 0.223606 0.290942 0.242099 0.307828 0.290942 0.348086 0.307828 0.363313 0.242099 0.307828 0.258115 0.320992 0.307828 0.363313 0.320992 0.375153 -0.444109 -0.401193 -0.333155 -0.283157 -0.401193 -0.35392 -0.283157 -0.225213 -0.333155 -0.283157 -0.197667 -0.134718 -0.283157 -0.225213 -0.134718 -0.0578586 -0.452035 -0.396839 -0.46506 -0.411121 -0.396839 -0.337542 -0.411121 -0.350438 -0.46506 -0.411121 -0.473496 -0.423563 -0.411121 -0.350438 -0.423563 -0.365512 -0.337542 -0.275622 -0.350438 -0.283632 -0.275622 -0.217042 -0.283632 -0.216343 -0.350438 -0.283632 -0.365512 -0.297002 -0.283632 -0.216343 -0.297002 -0.220697 -0.217042 -0.170299 -0.216343 -0.1603 -0.170299 -0.143509 -0.1603 -0.129947 -0.216343 -0.1603 -0.220697 -0.151439 -0.1603 -0.129947 -0.151439 -0.11508 0.149303 0.163383 0.135193 0.154043 0.163383 0.201161 0.154043 0.200109 0.135193 0.154043 0.119726 0.146103 0.154043 0.200109 0.146103 0.202692 0.201161 0.247304 0.200109 0.25295 0.247304 0.295416 0.25295 0.304922 0.200109 0.25295 0.202692 0.261994 0.25295 0.304922 0.261994 0.317266 -0.301298 -0.271903 -0.234352 -0.199318 -0.271903 -0.239304 -0.199318 -0.158708 -0.234352 -0.199318 -0.153842 -0.109159 -0.199318 -0.158708 -0.109159 -0.0545945 -0.225213 -0.191615 -0.145618 -0.105753 -0.191615 -0.153842 -0.105753 -0.0594656 -0.145618 -0.105753 -0.0578586 -0.0129204 -0.105753 -0.0594656 -0.0129204 0.0361954 -0.153842 -0.109159 -0.0594656 -0.00593418 -0.109159 -0.0545945 -0.00593418 0.0541962 -0.0594656 -0.00593418 0.0361954 0.0876637 -0.00593418 0.0541962 0.0876637 0.137549 -0.239304 -0.202775 -0.158708 -0.108485 -0.202775 -0.159578 -0.108485 -0.0393575 -0.158708 -0.108485 -0.0545945 0.0135618 -0.108485 -0.0393575 0.0135618 0.0903081 -0.159578 -0.103899 -0.0393575 0.0618027 -0.103899 0 0.0618027 0.121514 -0.0393575 0.0618027 0.0903081 0.147033 0.0618027 0.121514 0.147033 0.17806 -0.0545945 0.0135618 0.0541962 0.114529 0.0135618 0.0903081 0.114529 0.164262 0.0541962 0.114529 0.137549 0.181073 0.114529 0.164262 0.181073 0.215715 0.0903081 0.147033 0.164262 0.199318 0.147033 0.17806 0.199318 0.221196 0.164262 0.199318 0.215715 0.240627 0.199318 0.221196 0.240627 0.258115 0.0361954 0.0876637 0.117325 0.160053 0.0876637 0.137549 0.160053 0.198394 0.117325 0.160053 0.182116 0.216329 0.160053 0.198394 0.216329 0.246474 0.137549 0.181073 0.198394 0.230893 0.181073 0.215715 0.230893 0.256912 0.198394 0.230893 0.246474 0.272008 0.230893 0.256912 0.272008 0.292689 -0.313069 -0.275054 -0.318945 -0.283043 -0.275054 -0.233153 -0.283043 -0.241709 -0.318945 -0.283043 -0.321414 -0.288539 -0.283043 -0.241709 -0.288539 -0.249874 -0.233153 -0.188163 -0.241709 -0.194533 -0.188163 -0.145824 -0.194533 -0.146036 -0.241709 -0.194533 -0.249874 -0.203346 -0.194533 -0.146036 -0.203346 -0.149833 -0.145824 -0.11414 -0.146036 -0.106999 -0.11414 -0.0983951 -0.106999 -0.0890965 -0.146036 -0.106999 -0.149833 -0.10046 -0.106999 -0.0890965 -0.10046 -0.0789032 -0.321414 -0.288539 -0.319958 -0.289361 -0.288539 -0.249874 -0.289361 -0.254558 -0.319958 -0.289361 -0.315448 -0.285995 -0.289361 -0.254558 -0.285995 -0.253489 -0.249874 -0.203346 -0.254558 -0.211715 -0.203346 -0.149833 -0.211715 -0.157518 -0.254558 -0.211715 -0.253489 -0.215252 -0.211715 -0.157518 -0.215252 -0.165302 -0.149833 -0.10046 -0.157518 -0.0960705 -0.10046 -0.0789032 -0.0960705 -0.0674633 -0.157518 -0.0960705 -0.165302 -0.0967125 -0.0960705 -0.0674633 -0.0967125 -0.054099 -0.253489 -0.215252 -0.247506 -0.211232 -0.215252 -0.165302 -0.211232 -0.167264 -0.247506 -0.211232 -0.239304 -0.202775 -0.211232 -0.167264 -0.202775 -0.159578 -0.165302 -0.0967125 -0.167264 -0.0991169 -0.0967125 -0.054099 -0.0991169 0.0385898 -0.167264 -0.0991169 -0.159578 -0.103899 -0.0991169 0.0385898 -0.103899 0 0.0820888 0.10161 0.070187 0.0983008 0.10161 0.143216 0.0983008 0.147357 0.070187 0.0983008 0.0562831 0.0994083 0.0983008 0.147357 0.0994083 0.155931 0.143216 0.184553 0.147357 0.192601 0.184553 0.223606 0.192601 0.232478 0.147357 0.192601 0.155931 0.202651 0.192601 0.232478 0.202651 0.242099 0.0562831 0.0994083 0.0385898 0.109372 0.0994083 0.155931 0.109372 0.167836 0.0385898 0.109372 0 0.121514 0.109372 0.167836 0.121514 0.17806 0.155931 0.202651 0.167836 0.213102 0.202651 0.242099 0.213102 0.251172 0.167836 0.213102 0.17806 0.221196 0.213102 0.251172 0.221196 0.258115 
SCALARS solution_1 double 1
LOOKUP_TABLE default