# vtk DataFile Version 3.0
#This file was generated by the deal.II library on 2020/5/26 at 18:33:38
ASCII
DATASET UNSTRUCTURED_GRID

POINTS 208 double
-1 -0.5 0
-0.594794 -0.6188 0
-1 2.7528e-12 0
-0.242875 -0.285335 0
-1 -0.5 0
-1 -1 0
-0.594794 -0.6188 0
-0.5 -1 0
-1 0.5 0
-0.466976 0.442128 0
-1 1 0
-0.5 1 0
0.517144 -0.253727 0
0.236872 -0.307713 0
0.545836 -0.43419 0
0.367761 -0.581653 0
0.517144 -0.253727 0
0.5 -5e-09 0
0.236872 -0.307713 0
0.25 -2.5e-09 0
0.75 0 0
0.753902 0.245343 0
0.5 0 0
0.517661 0.266605 0
1 0 0
1 0.25 0
0.75 0 0
0.753902 0.245343 0
1 0.25 0
1 0.5 0
0.753902 0.245343 0
0.727933 0.483829 0
0.753902 0.245343 0
0.727933 0.483829 0
0.517661 0.266605 0
0.549078 0.445837 0
0.647124 -0.712901 0
0.367761 -0.581653 0
0.5 -1 0
-2.7528e-12 -1 0
1 -0.75 0
0.647124 -0.712901 0
1 -1 0
0.5 -1 0
1 -0.5 0
0.739181 -0.473895 0
1 -0.75 0
0.647124 -0.712901 0
0.739181 -0.473895 0
0.545836 -0.43419 0
0.647124 -0.712901 0
0.367761 -0.581653 0
0.5 0 0
0.517661 0.266605 0
0.25 0 0
0.267855 0.341094 0
0.517661 0.266605 0
0.549078 0.445837 0
0.267855 0.341094 0
0.383304 0.602648 0
0.267855 0.341094 0
0.383304 0.602648 0
-0.0550467 0.433 0
2.7528e-12 1 0
1 -0.25 0
1 -1e-08 0
0.755346 -0.24105 0
0.75 -7.5e-09 0
0.755346 -0.24105 0
0.75 -7.5e-09 0
0.517144 -0.253727 0
0.5 -5e-09 0
0.755346 -0.24105 0
0.517144 -0.253727 0
0.739181 -0.473895 0
0.545836 -0.43419 0
1 -0.25 0
0.755346 -0.24105 0
1 -0.5 0
0.739181 -0.473895 0
1 0.75 0
1 1 0
0.645326 0.721511 0
0.5 1 0
0.645326 0.721511 0
0.5 1 0
0.383304 0.602648 0
2.7528e-12 1 0
0.727933 0.483829 0
0.645326 0.721511 0
0.549078 0.445837 0
0.383304 0.602648 0
1 0.5 0
1 0.75 0
0.727933 0.483829 0
0.645326 0.721511 0
-0.594794 -0.6188 0
-0.547397 -0.8094 0
-0.418835 -0.452068 0
-0.334417 -0.726034 0
-0.547397 -0.8094 0
-0.5 -1 0
-0.334417 -0.726034 0
-0.25 -1 0
-0.418835 -0.452068 0
-0.334417 -0.726034 0
-0.242875 -0.285335 0
-0.121437 -0.642668 0
-0.334417 -0.726034 0
-0.25 -1 0
-0.121437 -0.642668 0
-2.7528e-12 -1 0
-0.466976 0.442128 0
-0.261011 0.437564 0
-0.483488 0.721064 0
-0.255506 0.718782 0
-0.261011 0.437564 0
-0.0550467 0.433 0
-0.255506 0.718782 0
-0.0275233 0.7165 0
-0.483488 0.721064 0
-0.255506 0.718782 0
-0.5 1 0
-0.25 1 0
-0.255506 0.718782 0
-0.0275233 0.7165 0
-0.25 1 0
2.7528e-12 1 0
-1 2.7528e-12 0
-0.621437 -0.142668 0
-1 0.25 0
-0.677463 0.164198 0
-0.621437 -0.142668 0
-0.242875 -0.285335 0
-0.677463 0.164198 0
-0.354925 0.0783963 0
-1 0.25 0
-0.677463 0.164198 0
-1 0.5 0
-0.733488 0.471064 0
-0.677463 0.164198 0
-0.354925 0.0783963 0
-0.733488 0.471064 0
-0.466976 0.442128 0
-0.242875 -0.285335 0
-0.121437 -0.142668 0
-0.354925 0.0783963 0
-0.191224 0.147448 0
-0.121437 -0.142668 0
0 0 0
-0.191224 0.147448 0
-0.0275233 0.2165 0
-0.354925 0.0783963 0
-0.191224 0.147448 0
-0.466976 0.442128 0
-0.261011 0.437564 0
-0.191224 0.147448 0
-0.0275233 0.2165 0
-0.261011 0.437564 0
-0.0550467 0.433 0
0.236872 -0.307713 0
-0.00300155 -0.296524 0
0.302317 -0.444683 0
0.0904396 -0.543675 0
-0.00300155 -0.296524 0
-0.242875 -0.285335 0
0.0904396 -0.543675 0
-0.121437 -0.642668 0
0.302317 -0.444683 0
0.0904396 -0.543675 0
0.367761 -0.581653 0
0.183881 -0.790827 0
0.0904396 -0.543675 0
-0.121437 -0.642668 0
0.183881 -0.790827 0
-2.7528e-12 -1 0
0.236872 -0.307713 0
0.243436 -0.153857 0
-0.00300155 -0.296524 0
0.0609992 -0.148262 0
0.243436 -0.153857 0
0.25 -2.5e-09 0
0.0609992 -0.148262 0
0.125 -1.25e-09 0
-0.00300155 -0.296524 0
0.0609992 -0.148262 0
-0.242875 -0.285335 0
-0.121437 -0.142668 0
0.0609992 -0.148262 0
0.125 -1.25e-09 0
-0.121437 -0.142668 0
0 0 0
0.25 0 0
0.258927 0.170547 0
0.125 0 0
0.115702 0.193524 0
0.258927 0.170547 0
0.267855 0.341094 0
0.115702 0.193524 0
0.106404 0.387047 0
0.125 0 0
0.115702 0.193524 0
0 0 0
-0.0275233 0.2165 0
0.115702 0.193524 0
0.106404 0.387047 0
-0.0275233 0.2165 0
-0.0550467 0.433 0

CELLS 52 260
4	0	1	3	2
4	4	5	7	6
4	8	9	11	10
4	12	13	15	14
4	16	17	19	18
4	20	21	23	22
4	24	25	27	26
4	28	29	31	30
4	32	33	35	34
4	36	37	39	38
4	40	41	43	42
4	44	45	47	46
4	48	49	51	50
4	52	53	55	54
4	56	57	59	58
4	60	61	63	62
4	64	65	67	66
4	68	69	71	70
4	72	73	75	74
4	76	77	79	78
4	80	81	83	82
4	84	85	87	86
4	88	89	91	90
4	92	93	95	94
4	96	97	99	98
4	100	101	103	102
4	104	105	107	106
4	108	109	111	110
4	112	113	115	114
4	116	117	119	118
4	120	121	123	122
4	124	125	127	126
4	128	129	131	130
4	132	133	135	134
4	136	137	139	138
4	140	141	143	142
4	144	145	147	146
4	148	149	151	150
4	152	153	155	154
4	156	157	159	158
4	160	161	163	162
4	164	165	167	166
4	168	169	171	170
4	172	173	175	174
4	176	177	179	178
4	180	181	183	182
4	184	185	187	186
4	188	189	191	190
4	192	193	195	194
4	196	197	199	198
4	200	201	203	202
4	204	205	207	206

CELL_TYPES 52
 9 9 9 9 9 9 9 9 9 9 9 9 9 9 9 9 9 9 9 9 9 9 9 9 9 9 9 9 9 9 9 9 9 9 9 9 9 9 9 9 9 9 9 9 9 9 9 9 9 9 9 9
POINT_DATA 208
SCALARS solution_0 double 1
LOOKUP_TABLE default
-0.891082 -1.18011 -0.0754658 -0.773613 -0.891082 -1.53193 -1.18011 -1.64636 0.696491 0.78196 1.24813 1.33311 -0.612268 -0.730918 -0.838586 -1.06462 -0.612268 -0.357041 -0.730918 -0.244801 0.463219 0.5199 0.371456 0.491242 0.541768 0.584763 0.463219 0.5199 0.584763 0.698484 0.5199 0.670805 0.5199 0.670805 0.491242 0.642646 -1.14737 -1.06462 -1.49579 -1.64183 -1.12991 -1.14737 -1.36642 -1.49579 -0.89252 -0.868521 -1.12991 -1.14737 -0.868521 -0.838586 -1.14737 -1.06462 0.371456 0.491242 0.254684 0.580921 0.491242 0.642646 0.580921 0.81288 0.580921 0.81288 0.807057 1.2841 -0.677977 -0.520744 -0.62315 -0.445243 -0.62315 -0.445243 -0.612268 -0.357041 -0.62315 -0.612268 -0.868521 -0.838586 -0.677977 -0.62315 -0.89252 -0.868521 0.851725 1.0187 0.864229 1.1244 0.864229 1.1244 0.81288 1.2841 0.670805 0.864229 0.642646 0.81288 0.698484 0.851725 0.670805 0.864229 -1.18011 -1.4294 -0.989156 -1.37015 -1.4294 -1.64636 -1.37015 -1.6665 -0.989156 -1.37015 -0.773613 -1.28344 -1.37015 -1.6665 -1.28344 -1.64183 0.78196 0.823165 1.0893 1.10234 0.823165 0.807057 1.10234 1.06189 1.0893 1.10234 1.33311 1.33044 1.10234 1.06189 1.33044 1.2841 -0.0754658 -0.361315 0.334589 0.275122 -0.361315 -0.773613 0.275122 0.173732 0.334589 0.275122 0.696491 0.743929 0.275122 0.173732 0.743929 0.78196 -0.773613 -0.511844 0.173732 0.429707 -0.511844 0 0.429707 0.533436 0.173732 0.429707 0.78196 0.823165 0.429707 0.533436 0.823165 0.807057 -0.730918 -0.810496 -0.90794 -1.12092 -0.810496 -0.773613 -1.12092 -1.28344 -0.90794 -1.12092 -1.06462 -1.37448 -1.12092 -1.28344 -1.37448 -1.64183 -0.730918 -0.463148 -0.810496 -0.503837 -0.463148 -0.244801 -0.503837 -0.167844 -0.810496 -0.503837 -0.773613 -0.511844 -0.503837 -0.167844 -0.511844 0 0.254684 0.380037 0.174621 0.437236 0.380037 0.580921 0.437236 0.695284 0.174621 0.437236 0 0.533436 0.437236 0.695284 0.533436 0.807057 
SCALARS solution_1 double 1
LOOKUP_TABLE default
4.0155 2.9502 4.09789 1.79167 4.0155 3.9531 2.9502 2.75997 4.13824 2.74912 4.21505 3.12638 -0.448525 0.0596386 -0.254891 0.204209 -0.448525 -0.782746 0.0596386 -0.536679 0 0.275661 0 0.375081 0 0.212619 0 0.275661 0.212619 0.440563 0.275661 0.553609 0.275661 0.553609 0.375081 0.59971 -0.0747814 0.204209 0.444237 1.4824 -0.475211 -0.0747814 -0.234005 0.444237 -0.712312 -0.445321 -0.475211 -0.0747814 -0.445321 -0.254891 -0.0747814 0.204209 0 0.375081 0 0.648099 0.375081 0.59971 0.648099 0.938934 0.648099 0.938934 1.45688 2.05486 -0.93523 -1.14163 -0.71359 -0.976112 -0.71359 -0.976112 -0.448525 -0.782746 -0.71359 -0.448525 -0.445321 -0.254891 -0.93523 -0.71359 -0.712312 -0.445321 0.685741 0.94027 0.872825 1.31522 0.872825 1.31522 0.938934 2.05486 0.553609 0.872825 0.59971 0.938934 0.440563 0.685741 0.553609 0.872825 2.9502 2.84557 2.41685 2.23084 2.84557 2.75997 2.23084 2.11456 2.41685 2.23084 1.79167 1.53457 2.23084 2.11456 1.53457 1.4824 2.74912 2.12309 2.93568 2.34492 2.12309 1.45688 2.34492 1.77346 2.93568 2.34492 3.12638 2.56889 2.34492 1.77346 2.56889 2.05486 4.09789 3.0374 4.1202 3.25312 3.0374 1.79167 3.25312 2.23295 4.1202 3.25312 4.13824 3.47922 3.25312 2.23295 3.47922 2.74912 1.79167 1.18779 2.23295 1.6289 1.18779 0 1.6289 0.973542 2.23295 1.6289 2.74912 2.12309 1.6289 0.973542 2.12309 1.45688 0.0596386 0.763572 0.142822 0.781147 0.763572 1.79167 0.781147 1.53457 0.142822 0.781147 0.204209 0.837344 0.781147 1.53457 0.837344 1.4824 0.0596386 -0.225367 0.763572 0.198349 -0.225367 -0.536679 0.198349 -0.367967 0.763572 0.198349 1.79167 1.18779 0.198349 -0.367967 1.18779 0 0 0.339123 0 0.523608 0.339123 0.648099 0.523608 0.963866 0 0.523608 0 0.973542 0.523608 0.963866 0.973542 1.45688 
