# vtk DataFile Version 3.0
#This file was generated by the deal.II library on 2020/5/26 at 18:33:38
ASCII
DATASET UNSTRUCTURED_GRID

POINTS 376 double
-1 -0.5 0
-1 -1 0
-0.594794 -0.6188 0
-0.5 -1 0
-1 0.5 0
-0.466976 0.442128 0
-1 1 0
-0.5 1 0
0.517144 -0.253727 0
0.236872 -0.307713 0
0.545836 -0.43419 0
0.367761 -0.581653 0
0.75 0 0
0.753902 0.245343 0
0.5 0 0
0.517661 0.266605 0
1 0 0
1 0.25 0
0.75 0 0
0.753902 0.245343 0
1 0.25 0
1 0.5 0
0.753902 0.245343 0
0.727933 0.483829 0
0.753902 0.245343 0
0.727933 0.483829 0
0.517661 0.266605 0
0.549078 0.445837 0
0.647124 -0.712901 0
0.367761 -0.581653 0
0.5 -1 0
-2.7528e-12 -1 0
1 -0.75 0
0.647124 -0.712901 0
1 -1 0
0.5 -1 0
1 -0.5 0
0.739181 -0.473895 0
1 -0.75 0
0.647124 -0.712901 0
0.739181 -0.473895 0
0.545836 -0.43419 0
0.647124 -0.712901 0
0.367761 -0.581653 0
0.5 0 0
0.517661 0.266605 0
0.25 0 0
0.267855 0.341094 0
0.517661 0.266605 0
0.549078 0.445837 0
0.267855 0.341094 0
0.383304 0.602648 0
1 -0.25 0
1 -1e-08 0
0.755346 -0.24105 0
0.75 -7.5e-09 0
0.755346 -0.24105 0
0.75 -7.5e-09 0
0.517144 -0.253727 0
0.5 -5e-09 0
0.755346 -0.24105 0
0.517144 -0.253727 0
0.739181 -0.473895 0
0.545836 -0.43419 0
1 -0.25 0
0.755346 -0.24105 0
1 -0.5 0
0.739181 -0.473895 0
1 0.75 0
1 1 0
0.645326 0.721511 0
0.5 1 0
0.645326 0.721511 0
0.5 1 0
0.383304 0.602648 0
2.7528e-12 1 0
0.727933 0.483829 0
0.645326 0.721511 0
0.549078 0.445837 0
0.383304 0.602648 0
1 0.5 0
1 0.75 0
0.727933 0.483829 0
0.645326 0.721511 0
-0.594794 -0.6188 0
-0.547397 -0.8094 0
-0.418835 -0.452068 0
-0.334417 -0.726034 0
-0.547397 -0.8094 0
-0.5 -1 0
-0.334417 -0.726034 0
-0.25 -1 0
-0.418835 -0.452068 0
-0.334417 -0.726034 0
-0.242875 -0.285335 0
-0.121437 -0.642668 0
-0.334417 -0.726034 0
-0.25 -1 0
-0.121437 -0.642668 0
-2.7528e-12 -1 0
-0.466976 0.442128 0
-0.261011 0.437564 0
-0.483488 0.721064 0
-0.255506 0.718782 0
-0.261011 0.437564 0
-0.0550467 0.433 0
-0.255506 0.718782 0
-0.0275233 0.7165 0
-0.483488 0.721064 0
-0.255506 0.718782 0
-0.5 1 0
-0.25 1 0
-0.255506 0.718782 0
-0.0275233 0.7165 0
-0.25 1 0
2.7528e-12 1 0
-1 2.7528e-12 0
-0.621437 -0.142668 0
-1 0.25 0
-0.677463 0.164198 0
-1 0.25 0
-0.677463 0.164198 0
-1 0.5 0
-0.733488 0.471064 0
-0.677463 0.164198 0
-0.354925 0.0783963 0
-0.733488 0.471064 0
-0.466976 0.442128 0
0.236872 -0.307713 0
-0.00300155 -0.296524 0
0.302317 -0.444683 0
0.0904396 -0.543675 0
-0.00300155 -0.296524 0
-0.242875 -0.285335 0
0.0904396 -0.543675 0
-0.121437 -0.642668 0
0.302317 -0.444683 0
0.0904396 -0.543675 0
0.367761 -0.581653 0
0.183881 -0.790827 0
0.0904396 -0.543675 0
-0.121437 -0.642668 0
0.183881 -0.790827 0
-2.7528e-12 -1 0
0.25 0 0
0.258927 0.170547 0
0.125 0 0
0.115702 0.193524 0
0.258927 0.170547 0
0.267855 0.341094 0
0.115702 0.193524 0
0.106404 0.387047 0
-1 -0.5 0
-0.797397 -0.5594 0
-1 -0.25 0
-0.709417 -0.351034 0
-0.797397 -0.5594 0
-0.594794 -0.6188 0
-0.709417 -0.351034 0
-0.418835 -0.452068 0
-1 -0.25 0
-0.709417 -0.351034 0
-1 2.7528e-12 0
-0.621437 -0.142668 0
-0.709417 -0.351034 0
-0.418835 -0.452068 0
-0.621437 -0.142668 0
-0.242875 -0.285335 0
0.517144 -0.253727 0
0.508572 -0.126864 0
0.377008 -0.28072 0
0.376004 -0.14036 0
0.508572 -0.126864 0
0.5 -5e-09 0
0.376004 -0.14036 0
0.375 -3.75e-09 0
0.377008 -0.28072 0
0.376004 -0.14036 0
0.236872 -0.307713 0
0.243436 -0.153857 0
0.376004 -0.14036 0
0.375 -3.75e-09 0
0.243436 -0.153857 0
0.25 -2.5e-09 0
0.267855 0.341094 0
0.325579 0.471871 0
0.106404 0.387047 0
0.149028 0.594186 0
0.325579 0.471871 0
0.383304 0.602648 0
0.149028 0.594186 0
0.191652 0.801324 0
0.106404 0.387047 0
0.149028 0.594186 0
-0.0550467 0.433 0
-0.0275233 0.7165 0
0.149028 0.594186 0
0.191652 0.801324 0
-0.0275233 0.7165 0
2.7528e-12 1 0
-0.621437 -0.142668 0
-0.432156 -0.214002 0
-0.64945 0.0107652 0
-0.474175 -0.0463522 0
-0.432156 -0.214002 0
-0.242875 -0.285335 0
-0.474175 -0.0463522 0
-0.2989 -0.10347 0
-0.64945 0.0107652 0
-0.474175 -0.0463522 0
-0.677463 0.164198 0
-0.516194 0.121297 0
-0.474175 -0.0463522 0
-0.2989 -0.10347 0
-0.516194 0.121297 0
-0.354925 0.0783963 0
-0.242875 -0.285335 0
-0.182156 -0.214002 0
-0.2989 -0.10347 0
-0.227616 -0.0505397 0
-0.182156 -0.214002 0
-0.121437 -0.142668 0
-0.227616 -0.0505397 0
-0.156331 0.00239026 0
-0.2989 -0.10347 0
-0.227616 -0.0505397 0
-0.354925 0.0783963 0
-0.273075 0.112922 0
-0.227616 -0.0505397 0
-0.156331 0.00239026 0
-0.273075 0.112922 0
-0.191224 0.147448 0
-0.121437 -0.142668 0
-0.0607187 -0.0713339 0
-0.156331 0.00239026 0
-0.0850463 0.0553202 0
-0.0607187 -0.0713339 0
0 0 0
-0.0850463 0.0553202 0
-0.0137617 0.10825 0
-0.156331 0.00239026 0
-0.0850463 0.0553202 0
-0.191224 0.147448 0
-0.109374 0.181974 0
-0.0850463 0.0553202 0
-0.0137617 0.10825 0
-0.109374 0.181974 0
-0.0275233 0.2165 0
-0.354925 0.0783963 0
-0.273075 0.112922 0
-0.410951 0.260262 0
-0.318534 0.276384 0
-0.273075 0.112922 0
-0.191224 0.147448 0
-0.318534 0.276384 0
-0.226118 0.292506 0
-0.410951 0.260262 0
-0.318534 0.276384 0
-0.466976 0.442128 0
-0.363993 0.439846 0
-0.318534 0.276384 0
-0.226118 0.292506 0
-0.363993 0.439846 0
-0.261011 0.437564 0
-0.191224 0.147448 0
-0.109374 0.181974 0
-0.226118 0.292506 0
-0.133701 0.308628 0
-0.109374 0.181974 0
-0.0275233 0.2165 0
-0.133701 0.308628 0
-0.041285 0.32475 0
-0.226118 0.292506 0
-0.133701 0.308628 0
-0.261011 0.437564 0
-0.158029 0.435282 0
-0.133701 0.308628 0
-0.041285 0.32475 0
-0.158029 0.435282 0
-0.0550467 0.433 0
0.236872 -0.307713 0
0.240154 -0.230785 0
0.116935 -0.302119 0
0.134576 -0.226589 0
0.240154 -0.230785 0
0.243436 -0.153857 0
0.134576 -0.226589 0
0.152218 -0.151059 0
0.116935 -0.302119 0
0.134576 -0.226589 0
-0.00300155 -0.296524 0
0.0289988 -0.222393 0
0.134576 -0.226589 0
0.152218 -0.151059 0
0.0289988 -0.222393 0
0.0609992 -0.148262 0
0.243436 -0.153857 0
0.246718 -0.0769283 0
0.152218 -0.151059 0
0.169859 -0.0755297 0
0.246718 -0.0769283 0
0.25 -2.5e-09 0
0.169859 -0.0755297 0
0.1875 -1.875e-09 0
0.152218 -0.151059 0
0.169859 -0.0755297 0
0.0609992 -0.148262 0
0.0929996 -0.0741311 0
0.169859 -0.0755297 0
0.1875 -1.875e-09 0
0.0929996 -0.0741311 0
0.125 -1.25e-09 0
-0.00300155 -0.296524 0
0.0289988 -0.222393 0
-0.122938 -0.29093 0
-0.0765787 -0.218197 0
0.0289988 -0.222393 0
0.0609992 -0.148262 0
-0.0765787 -0.218197 0
-0.0302191 -0.145465 0
-0.122938 -0.29093 0
-0.0765787 -0.218197 0
-0.242875 -0.285335 0
-0.182156 -0.214002 0
-0.0765787 -0.218197 0
-0.0302191 -0.145465 0
-0.182156 -0.214002 0
-0.121437 -0.142668 0
0.0609992 -0.148262 0
0.0929996 -0.0741311 0
-0.0302191 -0.145465 0
0.0161404 -0.0727325 0
0.0929996 -0.0741311 0
0.125 -1.25e-09 0
0.0161404 -0.0727325 0
0.0625 -6.25e-10 0
-0.0302191 -0.145465 0
0.0161404 -0.0727325 0
-0.121437 -0.142668 0
-0.0607187 -0.0713339 0
0.0161404 -0.0727325 0
0.0625 -6.25e-10 0
-0.0607187 -0.0713339 0
0 0 0
0.125 0 0
0.120351 0.0967618 0
0.0625 0 0
0.0532947 0.102506 0
0.120351 0.0967618 0
0.115702 0.193524 0
0.0532947 0.102506 0
0.0440894 0.205012 0
0.0625 0 0
0.0532947 0.102506 0
0 0 0
-0.0137617 0.10825 0
0.0532947 0.102506 0
0.0440894 0.205012 0
-0.0137617 0.10825 0
-0.0275233 0.2165 0
0.115702 0.193524 0
0.111053 0.290285 0
0.0440894 0.205012 0
0.034884 0.307518 0
0.111053 0.290285 0
0.106404 0.387047 0
0.034884 0.307518 0
0.0256787 0.410024 0
0.0440894 0.205012 0
0.034884 0.307518 0
-0.0275233 0.2165 0
-0.041285 0.32475 0
0.034884 0.307518 0
0.0256787 0.410024 0
-0.041285 0.32475 0
-0.0550467 0.433 0

CELLS 94 470
4	0	1	3	2
4	4	5	7	6
4	8	9	11	10
4	12	13	15	14
4	16	17	19	18
4	20	21	23	22
4	24	25	27	26
4	28	29	31	30
4	32	33	35	34
4	36	37	39	38
4	40	41	43	42
4	44	45	47	46
4	48	49	51	50
4	52	53	55	54
4	56	57	59	58
4	60	61	63	62
4	64	65	67	66
4	68	69	71	70
4	72	73	75	74
4	76	77	79	78
4	80	81	83	82
4	84	85	87	86
4	88	89	91	90
4	92	93	95	94
4	96	97	99	98
4	100	101	103	102
4	104	105	107	106
4	108	109	111	110
4	112	113	115	114
4	116	117	119	118
4	120	121	123	122
4	124	125	127	126
4	128	129	131	130
4	132	133	135	134
4	136	137	139	138
4	140	141	143	142
4	144	145	147	146
4	148	149	151	150
4	152	153	155	154
4	156	157	159	158
4	160	161	163	162
4	164	165	167	166
4	168	169	171	170
4	172	173	175	174
4	176	177	179	178
4	180	181	183	182
4	184	185	187	186
4	188	189	191	190
4	192	193	195	194
4	196	197	199	198
4	200	201	203	202
4	204	205	207	206
4	208	209	211	210
4	212	213	215	214
4	216	217	219	218
4	220	221	223	222
4	224	225	227	226
4	228	229	231	230
4	232	233	235	234
4	236	237	239	238
4	240	241	243	242
4	244	245	247	246
4	248	249	251	250
4	252	253	255	254
4	256	257	259	258
4	260	261	263	262
4	264	265	267	266
4	268	269	271	270
4	272	273	275	274
4	276	277	279	278
4	280	281	283	282
4	284	285	287	286
4	288	289	291	290
4	292	293	295	294
4	296	297	299	298
4	300	301	303	302
4	304	305	307	306
4	308	309	311	310
4	312	313	315	314
4	316	317	319	318
4	320	321	323	322
4	324	325	327	326
4	328	329	331	330
4	332	333	335	334
4	336	337	339	338
4	340	341	343	342
4	344	345	347	346
4	348	349	351	350
4	352	353	355	354
4	356	357	359	358
4	360	361	363	362
4	364	365	367	366
4	368	369	371	370
4	372	373	375	374

CELL_TYPES 94
 9 9 9 9 9 9 9 9 9 9 9 9 9 9 9 9 9 9 9 9 9 9 9 9 9 9 9 9 9 9 9 9 9 9 9 9 9 9 9 9 9 9 9 9 9 9 9 9 9 9 9 9 9 9 9 9 9 9 9 9 9 9 9 9 9 9 9 9 9 9 9 9 9 9 9 9 9 9 9 9 9 9 9 9 9 9 9 9 9 9 9 9 9 9
POINT_DATA 376
SCALARS solution_0 double 1
LOOKUP_TABLE default
-0.891082 -1.53193 -1.17878 -1.64636 0.696491 0.779128 1.24813 1.33311 -0.616223 -0.731616 -0.840152 -1.06617 0.463219 0.520043 0.371456 0.491686 0.541768 0.584763 0.463219 0.520043 0.584763 0.698484 0.520043 0.671213 0.520043 0.671213 0.491686 0.643389 -1.14812 -1.06617 -1.49579 -1.64183 -1.12991 -1.14812 -1.36642 -1.49579 -0.89252 -0.869402 -1.12991 -1.14812 -0.869402 -0.840152 -1.14812 -1.06617 0.371456 0.491686 0.254684 0.583508 0.491686 0.643389 0.583508 0.812684 -0.677977 -0.520744 -0.624159 -0.445243 -0.624159 -0.445243 -0.616223 -0.357041 -0.624159 -0.616223 -0.869402 -0.840152 -0.677977 -0.624159 -0.89252 -0.869402 0.851725 1.0187 0.864503 1.1244 0.864503 1.1244 0.812684 1.2841 0.671213 0.864503 0.643389 0.812684 0.698484 0.851725 0.671213 0.864503 -1.17878 -1.42852 -0.98892 -1.37004 -1.42852 -1.64636 -1.37004 -1.6665 -0.98892 -1.37004 -0.770749 -1.28455 -1.37004 -1.6665 -1.28455 -1.64183 0.779128 0.819938 1.08753 1.10085 0.819938 0.806817 1.10085 1.06173 1.08753 1.10085 1.33311 1.33044 1.10085 1.06173 1.33044 1.2841 -0.0754658 -0.360757 0.334589 0.271553 0.334589 0.271553 0.696491 0.741669 0.271553 0.175713 0.741669 0.779128 -0.731616 -0.815762 -0.910181 -1.12277 -0.815762 -0.770749 -1.12277 -1.28455 -0.910181 -1.12277 -1.06617 -1.37563 -1.12277 -1.28455 -1.37563 -1.64183 0.254684 0.380011 0.174621 0.441975 0.380011 0.583508 0.441975 0.693193 -0.891082 -1.03857 -0.497499 -0.736492 -1.03857 -1.17878 -0.736492 -0.98892 -0.497499 -0.736492 -0.0754658 -0.360757 -0.736492 -0.98892 -0.360757 -0.770749 -0.616223 -0.46522 -0.657812 -0.455927 -0.46522 -0.357041 -0.455927 -0.305275 -0.657812 -0.455927 -0.731616 -0.470824 -0.455927 -0.305275 -0.470824 -0.244801 0.583508 0.702492 0.693193 0.888685 0.702492 0.812684 0.888685 1.05797 0.693193 0.888685 0.806817 1.06173 0.888685 1.05797 1.06173 1.2841 -0.360757 -0.557378 -0.032778 -0.156986 -0.557378 -0.770749 -0.156986 -0.336024 -0.032778 -0.156986 0.271553 0.225812 -0.156986 -0.336024 0.225812 0.175713 -0.770749 -0.653391 -0.336024 -0.195863 -0.653391 -0.520452 -0.195863 -0.0103423 -0.336024 -0.195863 0.175713 0.290152 -0.195863 -0.0103423 0.290152 0.407252 -0.520452 -0.350971 -0.0103423 0.241949 -0.350971 0 0.241949 0.367319 -0.0103423 0.241949 0.407252 0.500299 0.241949 0.367319 0.500299 0.546726 0.175713 0.290152 0.529897 0.589053 0.290152 0.407252 0.589053 0.641966 0.529897 0.589053 0.779128 0.803251 0.589053 0.641966 0.803251 0.819938 0.407252 0.500299 0.641966 0.678114 0.500299 0.546726 0.678114 0.685927 0.641966 0.678114 0.819938 0.823999 0.678114 0.685927 0.823999 0.806817 -0.731616 -0.605143 -0.773565 -0.634174 -0.605143 -0.470824 -0.634174 -0.47962 -0.773565 -0.634174 -0.815762 -0.681594 -0.634174 -0.47962 -0.681594 -0.516395 -0.470824 -0.338965 -0.47962 -0.319967 -0.338965 -0.244801 -0.319967 -0.209308 -0.47962 -0.319967 -0.516395 -0.314887 -0.319967 -0.209308 -0.314887 -0.167844 -0.815762 -0.681594 -0.813687 -0.694359 -0.681594 -0.516395 -0.694359 -0.553114 -0.813687 -0.694359 -0.770749 -0.653391 -0.694359 -0.553114 -0.653391 -0.520452 -0.516395 -0.314887 -0.553114 -0.353479 -0.314887 -0.167844 -0.353479 -0.11508 -0.553114 -0.353479 -0.520452 -0.350971 -0.353479 -0.11508 -0.350971 0 0.174621 0.283748 0.119726 0.318374 0.283748 0.441975 0.318374 0.494442 0.119726 0.318374 0 0.367319 0.318374 0.494442 0.367319 0.546726 0.441975 0.572809 0.494442 0.634125 0.572809 0.693193 0.634125 0.755129 0.494442 0.634125 0.546726 0.685927 0.634125 0.755129 0.685927 0.806817 
SCALARS solution_1 double 1
LOOKUP_TABLE default
4.0155 3.9531 2.95439 2.75997 4.13824 2.753 4.21505 3.12638 -0.447942 0.0618623 -0.254561 0.205012 0 0.275734 0 0.375387 0 0.212619 0 0.275734 0.212619 0.440563 0.275734 0.553746 0.275734 0.553746 0.375387 0.600118 -0.0746449 0.205012 0.444237 1.4824 -0.475211 -0.0746449 -0.234005 0.444237 -0.712312 -0.445227 -0.475211 -0.0746449 -0.445227 -0.254561 -0.0746449 0.205012 0 0.375387 0 0.649317 0.375387 0.600118 0.649317 0.939422 -0.93523 -1.14163 -0.713495 -0.976112 -0.713495 -0.976112 -0.447942 -0.782746 -0.713495 -0.447942 -0.445227 -0.254561 -0.93523 -0.713495 -0.712312 -0.445227 0.685741 0.94027 0.872981 1.31522 0.872981 1.31522 0.939422 2.05486 0.553746 0.872981 0.600118 0.939422 0.440563 0.685741 0.553746 0.872981 2.95439 2.84732 2.42412 2.23364 2.84732 2.75997 2.23364 2.11456 2.42412 2.23364 1.79071 1.53761 2.23364 2.11456 1.53761 1.4824 2.753 2.13028 2.93735 2.34805 2.13028 1.4648 2.34805 1.77612 2.93735 2.34805 3.12638 2.56889 2.34805 1.77612 2.56889 2.05486 4.09789 3.04083 4.1202 3.25238 4.1202 3.25238 4.13824 3.47904 3.25238 2.24324 3.47904 2.753 0.0618623 0.767636 0.144141 0.78403 0.767636 1.79071 0.78403 1.53761 0.144141 0.78403 0.205012 0.838338 0.78403 1.53761 0.838338 1.4824 0 0.340318 0 0.532642 0.340318 0.649317 0.532642 0.966263 4.0155 3.49305 4.06097 3.26977 3.49305 2.95439 3.26977 2.42412 4.06097 3.26977 4.09789 3.04083 3.26977 2.42412 3.04083 1.79071 -0.447942 -0.611788 -0.225788 -0.441339 -0.611788 -0.782746 -0.441339 -0.669258 -0.225788 -0.441339 0.0618623 -0.224904 -0.441339 -0.669258 -0.224904 -0.536679 0.649317 0.80771 0.966263 1.2398 0.80771 0.939422 1.2398 1.46702 0.966263 1.2398 1.4648 1.77612 1.2398 1.46702 1.77612 2.05486 3.04083 2.45503 3.14401 2.6094 2.45503 1.79071 2.6094 1.99477 3.14401 2.6094 3.25238 2.77787 2.6094 1.99477 2.77787 2.24324 1.79071 1.51915 1.99477 1.71453 1.51915 1.20905 1.71453 1.3975 1.99477 1.71453 2.24324 1.95639 1.71453 1.3975 1.95639 1.6448 1.20905 0.808211 1.3975 1.02525 0.808211 0 1.02525 0.666339 1.3975 1.02525 1.6448 1.31038 1.02525 0.666339 1.31038 0.99792 2.24324 1.95639 2.50034 2.20731 1.95639 1.6448 2.20731 1.89449 2.50034 2.20731 2.753 2.44943 2.20731 1.89449 2.44943 2.13028 1.6448 1.31038 1.89449 1.56693 1.31038 0.99792 1.56693 1.25048 1.89449 1.56693 2.13028 1.79547 1.56693 1.25048 1.79547 1.4648 0.0618623 -0.077783 0.346782 0.153147 -0.077783 -0.224904 0.153147 -0.0496641 0.346782 0.153147 0.767636 0.511732 0.153147 -0.0496641 0.511732 0.216021 -0.224904 -0.37861 -0.0496641 -0.256347 -0.37861 -0.536679 -0.256347 -0.458868 -0.0496641 -0.256347 0.216021 -0.088798 -0.256347 -0.458868 -0.088798 -0.367967 0.767636 0.511732 1.29173 1.0227 0.511732 0.216021 1.0227 0.684471 1.29173 1.0227 1.79071 1.51915 1.0227 0.684471 1.51915 1.20905 0.216021 -0.088798 0.684471 0.21479 -0.088798 -0.367967 0.21479 -0.252292 0.684471 0.21479 1.20905 0.808211 0.21479 -0.252292 0.808211 0 0 0.274589 0 0.389531 0.274589 0.532642 0.389531 0.71678 0 0.389531 0 0.666339 0.389531 0.71678 0.666339 0.99792 0.532642 0.762608 0.71678 0.977172 0.762608 0.966263 0.977172 1.19643 0.71678 0.977172 0.99792 1.25048 0.977172 1.19643 1.25048 1.4648 
