# vtk DataFile Version 3.0
#This file was generated by the deal.II library on 2020/5/26 at 18:33:36
ASCII
DATASET UNSTRUCTURED_GRID

POINTS 7936 double
-0.594794 -0.6188 0
-0.582945 -0.66645 0
-0.550804 -0.577117 0
-0.536641 -0.629977 0
-0.582945 -0.66645 0
-0.571096 -0.7141 0
-0.536641 -0.629977 0
-0.522478 -0.682838 0
-0.550804 -0.577117 0
-0.536641 -0.629977 0
-0.506814 -0.535434 0
-0.490337 -0.593504 0
-0.536641 -0.629977 0
-0.522478 -0.682838 0
-0.490337 -0.593504 0
-0.473861 -0.651575 0
-0.571096 -0.7141 0
-0.559246 -0.76175 0
-0.522478 -0.682838 0
-0.508315 -0.735698 0
-0.559246 -0.76175 0
-0.547397 -0.8094 0
-0.508315 -0.735698 0
-0.494152 -0.788558 0
-0.522478 -0.682838 0
-0.508315 -0.735698 0
-0.473861 -0.651575 0
-0.457384 -0.709646 0
-0.508315 -0.735698 0
-0.494152 -0.788558 0
-0.457384 -0.709646 0
-0.440907 -0.767717 0
-0.506814 -0.535434 0
-0.490337 -0.593504 0
-0.462824 -0.493751 0
-0.444034 -0.557032 0
-0.490337 -0.593504 0
-0.473861 -0.651575 0
-0.444034 -0.557032 0
-0.425243 -0.620313 0
-0.462824 -0.493751 0
-0.444034 -0.557032 0
-0.418835 -0.452068 0
-0.39773 -0.520559 0
-0.444034 -0.557032 0
-0.425243 -0.620313 0
-0.39773 -0.520559 0
-0.376626 -0.589051 0
-0.473861 -0.651575 0
-0.457384 -0.709646 0
-0.425243 -0.620313 0
-0.406453 -0.683594 0
-0.457384 -0.709646 0
-0.440907 -0.767717 0
-0.406453 -0.683594 0
-0.387662 -0.746875 0
-0.425243 -0.620313 0
-0.406453 -0.683594 0
-0.376626 -0.589051 0
-0.355522 -0.657542 0
-0.406453 -0.683594 0
-0.387662 -0.746875 0
-0.355522 -0.657542 0
-0.334417 -0.726034 0
-0.547397 -0.8094 0
-0.535548 -0.85705 0
-0.494152 -0.788558 0
-0.479989 -0.841419 0
-0.535548 -0.85705 0
-0.523699 -0.9047 0
-0.479989 -0.841419 0
-0.465826 -0.894279 0
-0.494152 -0.788558 0
-0.479989 -0.841419 0
-0.440907 -0.767717 0
-0.42443 -0.825788 0
-0.479989 -0.841419 0
-0.465826 -0.894279 0
-0.42443 -0.825788 0
-0.407954 -0.883858 0
-0.523699 -0.9047 0
-0.511849 -0.95235 0
-0.465826 -0.894279 0
-0.451663 -0.94714 0
-0.511849 -0.95235 0
-0.5 -1 0
-0.451663 -0.94714 0
-0.4375 -1 0
-0.465826 -0.894279 0
-0.451663 -0.94714 0
-0.407954 -0.883858 0
-0.391477 -0.941929 0
-0.451663 -0.94714 0
-0.4375 -1 0
-0.391477 -0.941929 0
-0.375 -1 0
-0.440907 -0.767717 0
-0.42443 -0.825788 0
-0.387662 -0.746875 0
-0.368872 -0.810156 0
-0.42443 -0.825788 0
-0.407954 -0.883858 0
-0.368872 -0.810156 0
-0.350081 -0.873438 0
-0.387662 -0.746875 0
-0.368872 -0.810156 0
-0.334417 -0.726034 0
-0.313313 -0.794525 0
-0.368872 -0.810156 0
-0.350081 -0.873438 0
-0.313313 -0.794525 0
-0.292209 -0.863017 0
-0.407954 -0.883858 0
-0.391477 -0.941929 0
-0.350081 -0.873438 0
-0.331291 -0.936719 0
-0.391477 -0.941929 0
-0.375 -1 0
-0.331291 -0.936719 0
-0.3125 -1 0
-0.350081 -0.873438 0
-0.331291 -0.936719 0
-0.292209 -0.863017 0
-0.271104 -0.931508 0
-0.331291 -0.936719 0
-0.3125 -1 0
-0.271104 -0.931508 0
-0.25 -1 0
-0.418835 -0.452068 0
-0.39773 -0.520559 0
-0.374845 -0.410385 0
-0.351427 -0.484086 0
-0.39773 -0.520559 0
-0.376626 -0.589051 0
-0.351427 -0.484086 0
-0.328008 -0.557788 0
-0.374845 -0.410385 0
-0.351427 -0.484086 0
-0.330855 -0.368701 0
-0.305123 -0.447614 0
-0.351427 -0.484086 0
-0.328008 -0.557788 0
-0.305123 -0.447614 0
-0.279391 -0.526526 0
-0.376626 -0.589051 0
-0.355522 -0.657542 0
-0.328008 -0.557788 0
-0.30459 -0.63149 0
-0.355522 -0.657542 0
-0.334417 -0.726034 0
-0.30459 -0.63149 0
-0.281172 -0.705192 0
-0.328008 -0.557788 0
-0.30459 -0.63149 0
-0.279391 -0.526526 0
-0.253659 -0.605438 0
-0.30459 -0.63149 0
-0.281172 -0.705192 0
-0.253659 -0.605438 0
-0.227927 -0.684351 0
-0.330855 -0.368701 0
-0.305123 -0.447614 0
-0.286865 -0.327018 0
-0.258819 -0.411141 0
-0.305123 -0.447614 0
-0.279391 -0.526526 0
-0.258819 -0.411141 0
-0.230774 -0.495264 0
-0.286865 -0.327018 0
-0.258819 -0.411141 0
-0.242875 -0.285335 0
-0.212516 -0.374669 0
-0.258819 -0.411141 0
-0.230774 -0.495264 0
-0.212516 -0.374669 0
-0.182156 -0.464002 0
-0.279391 -0.526526 0
-0.253659 -0.605438 0
-0.230774 -0.495264 0
-0.202728 -0.579387 0
-0.253659 -0.605438 0
-0.227927 -0.684351 0
-0.202728 -0.579387 0
-0.174682 -0.663509 0
-0.230774 -0.495264 0
-0.202728 -0.579387 0
-0.182156 -0.464002 0
-0.151797 -0.553335 0
-0.202728 -0.579387 0
-0.174682 -0.663509 0
-0.151797 -0.553335 0
-0.121437 -0.642668 0
-0.334417 -0.726034 0
-0.313313 -0.794525 0
-0.281172 -0.705192 0
-0.257754 -0.778894 0
-0.313313 -0.794525 0
-0.292209 -0.863017 0
-0.257754 -0.778894 0
-0.234336 -0.852596 0
-0.281172 -0.705192 0
-0.257754 -0.778894 0
-0.227927 -0.684351 0
-0.202196 -0.763263 0
-0.257754 -0.778894 0
-0.234336 -0.852596 0
-0.202196 -0.763263 0
-0.176464 -0.842175 0
-0.292209 -0.863017 0
-0.271104 -0.931508 0
-0.234336 -0.852596 0
-0.210918 -0.926298 0
-0.271104 -0.931508 0
-0.25 -1 0
-0.210918 -0.926298 0
-0.1875 -1 0
-0.234336 -0.852596 0
-0.210918 -0.926298 0
-0.176464 -0.842175 0
-0.150732 -0.921088 0
-0.210918 -0.926298 0
-0.1875 -1 0
-0.150732 -0.921088 0
-0.125 -1 0
-0.227927 -0.684351 0
-0.202196 -0.763263 0
-0.174682 -0.663509 0
-0.146637 -0.747632 0
-0.202196 -0.763263 0
-0.176464 -0.842175 0
-0.146637 -0.747632 0
-0.118591 -0.831755 0
-0.174682 -0.663509 0
-0.146637 -0.747632 0
-0.121437 -0.642668 0
-0.0910781 -0.732001 0
-0.146637 -0.747632 0
-0.118591 -0.831755 0
-0.0910781 -0.732001 0
-0.0607187 -0.821334 0
-0.176464 -0.842175 0
-0.150732 -0.921088 0
-0.118591 -0.831755 0
-0.0905456 -0.915877 0
-0.150732 -0.921088 0
-0.125 -1 0
-0.0905456 -0.915877 0
-0.0625 -1 0
-0.118591 -0.831755 0
-0.0905456 -0.915877 0
-0.0607187 -0.821334 0
-0.0303594 -0.910667 0
-0.0905456 -0.915877 0
-0.0625 -1 0
-0.0303594 -0.910667 0
-2.7528e-12 -1 0
-1 -0.5 0
-0.949349 -0.51485 0
-1 -0.4375 0
-0.943851 -0.454952 0
-0.949349 -0.51485 0
-0.898699 -0.5297 0
-0.943851 -0.454952 0
-0.887701 -0.472404 0
-1 -0.4375 0
-0.943851 -0.454952 0
-1 -0.375 0
-0.938352 -0.395054 0
-0.943851 -0.454952 0
-0.887701 -0.472404 0
-0.938352 -0.395054 0
-0.876704 -0.415108 0
-0.898699 -0.5297 0
-0.848048 -0.54455 0
-0.887701 -0.472404 0
-0.831552 -0.489856 0
-0.848048 -0.54455 0
-0.797397 -0.5594 0
-0.831552 -0.489856 0
-0.775402 -0.507308 0
-0.887701 -0.472404 0
-0.831552 -0.489856 0
-0.876704 -0.415108 0
-0.815055 -0.435163 0
-0.831552 -0.489856 0
-0.775402 -0.507308 0
-0.815055 -0.435163 0
-0.753407 -0.455217 0
-1 -0.375 0
-0.938352 -0.395054 0
-1 -0.3125 0
-0.932853 -0.335156 0
-0.938352 -0.395054 0
-0.876704 -0.415108 0
-0.932853 -0.335156 0
-0.865706 -0.357813 0
-1 -0.3125 0
-0.932853 -0.335156 0
-1 -0.25 0
-0.927354 -0.275258 0
-0.932853 -0.335156 0
-0.865706 -0.357813 0
-0.927354 -0.275258 0
-0.854709 -0.300517 0
-0.876704 -0.415108 0
-0.815055 -0.435163 0
-0.865706 -0.357813 0
-0.798559 -0.380469 0
-0.815055 -0.435163 0
-0.753407 -0.455217 0
-0.798559 -0.380469 0
-0.731412 -0.403125 0
-0.865706 -0.357813 0
-0.798559 -0.380469 0
-0.854709 -0.300517 0
-0.782063 -0.325775 0
-0.798559 -0.380469 0
-0.731412 -0.403125 0
-0.782063 -0.325775 0
-0.709417 -0.351034 0
-0.797397 -0.5594 0
-0.746746 -0.57425 0
-0.775402 -0.507308 0
-0.719253 -0.52476 0
-0.746746 -0.57425 0
-0.696096 -0.5891 0
-0.719253 -0.52476 0
-0.663103 -0.542213 0
-0.775402 -0.507308 0
-0.719253 -0.52476 0
-0.753407 -0.455217 0
-0.691759 -0.475271 0
-0.719253 -0.52476 0
-0.663103 -0.542213 0
-0.691759 -0.475271 0
-0.630111 -0.495325 0
-0.696096 -0.5891 0
-0.645445 -0.60395 0
-0.663103 -0.542213 0
-0.606954 -0.559665 0
-0.645445 -0.60395 0
-0.594794 -0.6188 0
-0.606954 -0.559665 0
-0.550804 -0.577117 0
-0.663103 -0.542213 0
-0.606954 -0.559665 0
-0.630111 -0.495325 0
-0.568462 -0.515379 0
-0.606954 -0.559665 0
-0.550804 -0.577117 0
-0.568462 -0.515379 0
-0.506814 -0.535434 0
-0.753407 -0.455217 0
-0.691759 -0.475271 0
-0.731412 -0.403125 0
-0.664265 -0.425782 0
-0.691759 -0.475271 0
-0.630111 -0.495325 0
-0.664265 -0.425782 0
-0.597118 -0.448438 0
-0.731412 -0.403125 0
-0.664265 -0.425782 0
-0.709417 -0.351034 0
-0.636772 -0.376292 0
-0.664265 -0.425782 0
-0.597118 -0.448438 0
-0.636772 -0.376292 0
-0.564126 -0.401551 0
-0.630111 -0.495325 0
-0.568462 -0.515379 0
-0.597118 -0.448438 0
-0.529971 -0.471094 0
-0.568462 -0.515379 0
-0.506814 -0.535434 0
-0.529971 -0.471094 0
-0.462824 -0.493751 0
-0.597118 -0.448438 0
-0.529971 -0.471094 0
-0.564126 -0.401551 0
-0.49148 -0.426809 0
-0.529971 -0.471094 0
-0.462824 -0.493751 0
-0.49148 -0.426809 0
-0.418835 -0.452068 0
-1 -0.25 0
-0.927354 -0.275258 0
-1 -0.1875 0
-0.921856 -0.215361 0
-0.927354 -0.275258 0
-0.854709 -0.300517 0
-0.921856 -0.215361 0
-0.843711 -0.243221 0
-1 -0.1875 0
-0.921856 -0.215361 0
-1 -0.125 0
-0.916357 -0.155463 0
-0.921856 -0.215361 0
-0.843711 -0.243221 0
-0.916357 -0.155463 0
-0.832714 -0.185925 0
-0.854709 -0.300517 0
-0.782063 -0.325775 0
-0.843711 -0.243221 0
-0.765567 -0.271082 0
-0.782063 -0.325775 0
-0.709417 -0.351034 0
-0.765567 -0.271082 0
-0.687422 -0.298942 0
-0.843711 -0.243221 0
-0.765567 -0.271082 0
-0.832714 -0.185925 0
-0.749071 -0.216388 0
-0.765567 -0.271082 0
-0.687422 -0.298942 0
-0.749071 -0.216388 0
-0.665427 -0.246851 0
-1 -0.125 0
-0.916357 -0.155463 0
-1 -0.0625 0
-0.910858 -0.0955648 0
-0.916357 -0.155463 0
-0.832714 -0.185925 0
-0.910858 -0.0955648 0
-0.821716 -0.12863 0
-1 -0.0625 0
-0.910858 -0.0955648 0
-1 2.7528e-12 0
-0.905359 -0.0356669 0
-0.910858 -0.0955648 0
-0.821716 -0.12863 0
-0.905359 -0.0356669 0
-0.810719 -0.0713339 0
-0.832714 -0.185925 0
-0.749071 -0.216388 0
-0.821716 -0.12863 0
-0.732574 -0.161694 0
-0.749071 -0.216388 0
-0.665427 -0.246851 0
-0.732574 -0.161694 0
-0.643432 -0.194759 0
-0.821716 -0.12863 0
-0.732574 -0.161694 0
-0.810719 -0.0713339 0
-0.716078 -0.107001 0
-0.732574 -0.161694 0
-0.643432 -0.194759 0
-0.716078 -0.107001 0
-0.621437 -0.142668 0
-0.709417 -0.351034 0
-0.636772 -0.376292 0
-0.687422 -0.298942 0
-0.609278 -0.326803 0
-0.636772 -0.376292 0
-0.564126 -0.401551 0
-0.609278 -0.326803 0
-0.531133 -0.354663 0
-0.687422 -0.298942 0
-0.609278 -0.326803 0
-0.665427 -0.246851 0
-0.581784 -0.277313 0
-0.609278 -0.326803 0
-0.531133 -0.354663 0
-0.581784 -0.277313 0
[...]
POINT_DATA 7936
SCALARS solution_0 double 1
LOOKUP_TABLE default
-1.17854 -1.24477 -1.13349 -1.20898 -1.24477 -1.30837 -1.20898 -1.28092 -1.13349 -1.20898 -1.087 -1.17226 -1.20898 -1.28092 -1.17226 -1.25277 -1.30837 -1.36955 -1.28092 -1.34962 -1.36955 -1.42849 -1.34962 -1.41536 -1.28092 -1.34962 -1.25277 -1.32902 -1.34962 -1.41536 -1.32902 -1.40146 -1.087 -1.17226 -1.03898 -1.13456 -1.17226 -1.25277 -1.13456 -1.22388 -1.03898 -1.13456 -0.989285 -1.09585 -1.13456 -1.22388 -1.09585 -1.19415 -1.25277 -1.32902 -1.22388 -1.30766 -1.32902 -1.40146 -1.30766 -1.3866 -1.22388 -1.30766 -1.19415 -1.28536 -1.30766 -1.3866 -1.28536 -1.37053 -1.42849 -1.48539 -1.41536 -1.47845 -1.48539 -1.54048 -1.47845 -1.53919 -1.41536 -1.47845 -1.40146 -1.47052 -1.47845 -1.53919 -1.47052 -1.5366 -1.54048 -1.59401 -1.53919 -1.59789 -1.59401 -1.64636 -1.59789 -1.65498 -1.53919 -1.59789 -1.5366 -1.60009 -1.59789 -1.65498 -1.60009 -1.6614 -1.40146 -1.47052 -1.3866 -1.46134 -1.47052 -1.5366 -1.46134 -1.53243 -1.3866 -1.46134 -1.37053 -1.45059 -1.46134 -1.53243 -1.45059 -1.5263 -1.5366 -1.60009 -1.53243 -1.60031 -1.60009 -1.6614 -1.60031 -1.66532 -1.53243 -1.60031 -1.5263 -1.59822 -1.60031 -1.66532 -1.59822 -1.6665 -0.989285 -1.09585 -0.937742 -1.05603 -1.09585 -1.19415 -1.05603 -1.16346 -0.937742 -1.05603 -0.884118 -1.01499 -1.05603 -1.16346 -1.01499 -1.13162 -1.19415 -1.28536 -1.16346 -1.26188 -1.28536 -1.37053 -1.26188 -1.3529 -1.16346 -1.26188 -1.13162 -1.2369 -1.26188 -1.3529 -1.2369 -1.33328 -0.884118 -1.01499 -0.8281 -0.972552 -1.01499 -1.13162 -0.972552 -1.09829 -0.8281 -0.972552 -0.769286 -0.928474 -0.972552 -1.09829 -0.928474 -1.06301 -1.13162 -1.2369 -1.09829 -1.20995 -1.2369 -1.33328 -1.20995 -1.31112 -1.09829 -1.20995 -1.06301 -1.18035 -1.20995 -1.31112 -1.18035 -1.28579 -1.37053 -1.45059 -1.3529 -1.43785 -1.45059 -1.5263 -1.43785 -1.5178 -1.3529 -1.43785 -1.33328 -1.42266 -1.43785 -1.5178 -1.42266 -1.50648 -1.5263 -1.59822 -1.5178 -1.59344 -1.59822 -1.6665 -1.59344 -1.66478 -1.5178 -1.59344 -1.50648 -1.58562 -1.59344 -1.66478 -1.58562 -1.66007 -1.33328 -1.42266 -1.31112 -1.40449 -1.42266 -1.50648 -1.40449 -1.49191 -1.31112 -1.40449 -1.28579 -1.38285 -1.40449 -1.49191 -1.38285 -1.4738 -1.50648 -1.58562 -1.49191 -1.57451 -1.58562 -1.66007 -1.57451 -1.65238 -1.49191 -1.57451 -1.4738 -1.56 -1.57451 -1.65238 -1.56 -1.64183 -0.891082 -0.928536 -0.796899 -0.840118 -0.928536 -0.965449 -0.840118 -0.882941 -0.796899 -0.840118 -0.699717 -0.748337 -0.840118 -0.882941 -0.748337 -0.796927 -0.965449 -1.00196 -0.882941 -0.925537 -1.00196 -1.03814 -0.925537 -0.967951 -0.882941 -0.925537 -0.796927 -0.845658 -0.925537 -0.967951 -0.845658 -0.894533 -0.699717 -0.748337 -0.599795 -0.653185 -0.748337 -0.796927 -0.653185 -0.70721 -0.599795 -0.653185 -0.497499 -0.554733 -0.653185 -0.70721 -0.554733 -0.613622 -0.796927 -0.845658 -0.70721 -0.762008 -0.845658 -0.894533 -0.762008 -0.817517 -0.70721 -0.762008 -0.613622 -0.674245 -0.762008 -0.817517 -0.674245 -0.736459 -1.03814 -1.07398 -0.967951 -1.01013 -1.07398 -1.10941 -1.01013 -1.05193 -0.967951 -1.01013 -0.894533 -0.943422 -1.01013 -1.05193 -0.943422 -0.99207 -1.10941 -1.14431 -1.05193 -1.09315 -1.14431 -1.17854 -1.09315 -1.13349 -1.05193 -1.09315 -0.99207 -1.0401 -1.09315 -1.13349 -1.0401 -1.087 -0.894533 -0.943422 -0.817517 -0.873494 -0.943422 -0.99207 -0.873494 -0.929513 -0.817517 -0.873494 -0.736459 -0.799887 -0.873494 -0.929513 -0.799887 -0.863875 -0.99207 -1.0401 -0.929513 -0.984952 -1.0401 -1.087 -0.984952 -1.03898 -0.929513 -0.984952 -0.863875 -0.92745 -0.984952 -1.03898 -0.92745 -0.989285 -0.497499 -0.554733 -0.393304 -0.453165 -0.554733 -0.613622 -0.453165 -0.51607 -0.393304 -0.453165 -0.287787 -0.348826 -0.453165 -0.51607 -0.348826 -0.414599 -0.613622 -0.674245 -0.51607 -0.58203 -0.674245 -0.736459 -0.58203 -0.65085 -0.51607 -0.58203 -0.414599 -0.485083 -0.58203 -0.65085 -0.485083 -0.560131 -0.287787 -0.348826 -0.181604 -0.242266 -0.348826 -0.414599 -0.242266 -0.309481 -0.181604 -0.242266 -0.0754658 -0.134267 -0.242266 -0.309481 -0.134267 -0.201314 -0.414599 -0.485083 -0.309481 -0.383279 -0.485083 -0.560131 -0.383279 -0.46375 -0.309481 -0.383279 -0.201314 -0.276784 -0.383279 -0.46375 -0.276784 -0.361277 -0.736459 -0.799887 -0.65085 -0.722029 -0.799887 -0.863875 -0.722029 -0.794645 -0.65085 -0.722029 -0.560131 -0.639212 -0.722029 -0.794645 -0.639212 -0.721152 -0.863875 -0.92745 -0.794645 -0.867244 -0.92745 -0.989285 -0.867244 -0.937742 -0.794645 -0.867244 -0.721152 -0.803863 -0.867244 -0.937742 -0.803863 -0.884118 -0.560131 -0.639212 -0.46375 -0.550579 -0.639212 -0.721152 -0.550579 -0.642496 -0.46375 -0.550579 -0.361277 -0.455134 -0.550579 -0.642496 -0.455134 -0.557459 -0.721152 -0.803863 -0.642496 -0.736663 -0.803863 -0.884118 -0.736663 -0.8281 -0.642496 -0.736663 -0.557459 -0.664742 -0.736663 -0.8281 -0.664742 -0.769286 -0.891082 -0.982106 -0.928536 -1.01684 -0.982106 -1.0699 -1.01684 -1.10187 -0.928536 -1.01684 -0.965449 -1.05091 -1.01684 -1.10187 -1.05091 -1.13311 -1.0699 -1.15446 -1.10187 -1.18369 -1.15446 -1.23584 -1.18369 -1.26238 -1.10187 -1.18369 -1.13311 -1.21215 -1.18369 -1.26238 -1.21215 -1.28816 -0.965449 -1.05091 -1.00196 -1.08447 -1.05091 -1.13311 -1.08447 -1.16376 -1.00196 -1.08447 -1.03814 -1.11758 -1.08447 -1.16376 -1.11758 -1.19389 -1.13311 -1.21215 -1.16376 -1.23999 -1.21215 -1.28816 -1.23999 -1.31329 -1.16376 -1.23999 -1.19389 -1.26724 -1.23999 -1.31329 -1.26724 -1.3378 -1.23584 -1.31415 -1.26238 -1.33808 -1.31415 -1.3895 -1.33808 -1.41093 -1.26238 -1.33808 -1.28816 -1.3613 -1.33808 -1.41093 -1.3613 -1.43172 -1.3895 -1.46204 -1.41093 -1.48105 -1.46204 -1.53193 -1.48105 -1.54836 -1.41093 -1.48105 -1.43172 -1.49951 -1.48105 -1.54836 -1.49951 -1.56458 -1.28816 -1.3613 -1.31329 -1.38386 -1.3613 -1.43172 -1.38386 -1.45184 -1.31329 -1.38386 -1.3378 -1.40576 -1.38386 -1.45184 -1.40576 -1.47129 -1.43172 -1.49951 -1.45184 -1.51737 -1.49951 -1.56458 -1.51737 -1.58042 -1.45184 -1.51737 -1.47129 -1.53456 -1.51737 -1.58042 -1.53456 -1.59571 -1.03814 -1.11758 -1.07398 -1.15025 -1.11758 -1.19389 -1.15025 -1.2235 -1.07398 -1.15025 -1.10941 -1.18241 -1.15025 -1.2235 -1.18241 -1.25253 -1.19389 -1.26724 -1.2235 -1.29391 -1.26724 -1.3378 -1.29391 -1.36167 -1.2235 -1.29391 -1.25253 -1.31993 -1.29391 -1.36167 -1.31993 -1.38482 -1.10941 -1.18241 -1.14431 -1.21397 -1.18241 -1.25253 -1.21397 -1.28087 -1.14431 -1.21397 -1.17854 -1.24477 -1.21397 -1.28087 -1.24477 -1.30837 -1.25253 -1.31993 -1.28087 -1.3452 -1.31993 -1.38482 -1.3452 -1.40716 -1.28087 -1.3452 -1.30837 -1.36955 -1.3452 -1.40716 -1.36955 -1.42849 -1.3378 -1.40576 -1.36167 -1.42696 -1.40576 -1.47129 -1.42696 -1.49 -1.36167 -1.42696 -1.38482 -1.4474 -1.42696 -1.49 -1.4474 -1.50788 -1.47129 -1.53456 -1.49 -1.55099 -1.53456 -1.59571 -1.55099 -1.6102 -1.49 -1.55099 -1.50788 -1.56652 -1.55099 -1.6102 -1.56652 -1.62366 -1.38482 -1.4474 -1.40716 -1.46694 -1.4474 -1.50788 -1.46694 -1.52477 -1.40716 -1.46694 -1.42849 -1.48539 -1.46694 -1.52477 -1.48539 -1.54048 -1.50788 -1.56652 -1.52477 -1.58094 -1.56652 -1.62366 -1.58094 -1.63581 -1.52477 -1.58094 -1.54048 -1.59401 -1.58094 -1.63581 -1.59401 -1.64636 0.778706 0.790858 0.864354 0.87515 0.790858 0.801966 0.87515 0.884531 0.864354 0.87515 0.943511 0.952954 0.87515 0.884531 0.952954 0.9607 0.801966 0.811525 0.884531 0.891985 0.811525 0.818856 0.891985 0.896868 0.884531 0.891985 0.9607 0.966254 0.891985 0.896868 0.966254 0.969028 0.943511 0.952954 1.01736 1.02554 0.952954 0.9607 1.02554 1.0318 1.01736 1.02554 1.08681 1.09383 1.02554 1.0318 1.09383 1.0988 0.9607 0.966254 1.0318 1.03569 0.966254 0.969028 1.03569 1.03669 1.0318 1.03569 1.0988 1.10127 1.03569 1.03669 1.10127 1.10078 0.818856 0.823085 0.896868 0.89841 0.823085 0.823148 0.89841 0.895769 0.896868 0.89841 0.969028 0.968364 0.89841 0.895769 0.968364 0.96362 0.823148 0.817934 0.895769 0.888192 0.817934 0.806635 0.888192 0.87531 0.895769 0.888192 0.96362 0.954313 0.888192 0.87531 0.954313 0.940344 0.969028 0.968364 1.03669 1.03423 0.968364 0.96362 1.03423 1.02785 1.03669 1.03423 1.10078 1.09688 1.03423 1.02785 1.09688 1.08922 0.96362 0.954313 1.02785 1.01725 0.954313 0.940344 1.01725 1.0025 1.02785 1.01725 1.08922 1.07764 1.01725 1.0025 1.07764 1.06231 1.08681 1.09383 1.15256 1.15855 1.09383 1.0988 1.15855 1.16238 1.15256 1.15855 1.21515 1.22022 1.15855 1.16238 1.22022 1.22306 1.0988 1.10127 1.16238 1.16365 1.10127 1.10078 1.16365 1.16194 1.16238 1.16365 1.22306 1.22329 1.16365 1.16194 1.22329 1.22058 1.21515 1.22022 1.27512 1.27931 1.22022 1.22306 1.27931 1.28119 1.27512 1.27931 1.33311 1.33632 1.27931 1.28119 1.33632 1.33707 1.22306 1.22329 1.28119 1.28045 1.22329 1.22058 1.28045 1.27682 1.28119 1.28045 1.33707 1.33515 1.28045 1.27682 1.33515 1.33044 1.10078 1.09688 1.16194 1.15689 1.09688 1.08922 1.15689 1.14823 1.16194 1.15689 1.22058 1.21461 1.15689 1.14823 1.21461 1.2052 1.08922 1.07764 1.14823 1.13592 1.07764 1.06231 1.13592 1.12017 1.14823 1.13592 1.2052 1.19236 1.13592 1.12017 1.19236 1.17637 1.22058 1.21461 1.27682 1.27009 1.21461 1.2052 1.27009 1.26014 1.27682 1.27009 1.33044 1.32288 1.27009 1.26014 1.32288 1.31252 1.2052 1.19236 1.26014 1.24703 1.19236 1.17637 1.24703 1.23105 1.26014 1.24703 1.31252 1.29951 1.24703 1.23105 1.29951 1.2841 0.696491 0.708659 0.777539 0.790666 0.708659 0.719785 0.790666 0.802824 0.777539 0.790666 0.854812 0.868521 0.790666 0.802824 0.868521 0.881326 0.719785 0.730281 0.802824 0.814312 0.730281 0.740412 0.814312 0.825313 0.802824 0.814312 0.881326 0.893422 0.814312 0.825313 0.893422 0.904911 0.854812 0.868521 0.928432 0.942446 0.868521 0.881326 0.942446 0.955624 0.928432 0.942446 0.998561 1.01269 0.942446 0.955624 1.01269 1.02605 0.881326 0.893422 0.955624 0.968061 0.893422 0.904911 0.968061 0.979783 0.955624 0.968061 1.02605 1.03866 0.968061 0.979783 1.03866 1.05046 0.740412 0.750332 0.825313 0.835904 0.750332 0.760087 0.835904 0.846058 0.825313 0.835904 0.904911 0.915802 0.835904 0.846058 0.915802 0.926014 0.760087 0.769613 0.846058 0.855634 0.769613 0.778706 0.855634 0.864354 0.846058 0.855634 0.926014 0.935355 0.855634 0.864354 0.935355 0.943511 0.904911 0.915802 0.979783 0.990746 0.915802 0.926014 0.990746 1.00083 0.979783 0.990746 1.05046 1.06136 0.990746 1.00083 1.06136 1.07122 0.926014 0.935355 1.00083 1.00981 0.935355 0.943511 1.00981 1.01736 1.00083 1.00981 1.07122 1.07981 1.00981 1.01736 1.07981 1.08681 0.998561 1.01269 1.06539 1.07951 1.01269 1.02605 1.07951 1.09296 1.06539 1.07951 1.12912 1.14319 1.07951 1.09296 1.14319 1.15667 1.02605 1.03866 1.09296 1.10563 1.03866 1.05046 1.10563 1.11741 1.09296 1.10563 1.15667 1.16937 1.10563 1.11741 1.16937 1.18111 1.12912 1.14319 1.18996 1.204 1.14319 1.15667 1.204 1.21754 1.18996 1.204 1.24813 1.26231 1.204 1.21754 1.26231 1.27588 1.15667 1.16937 1.21754 1.23027 1.16937 1.18111 1.23027 1.242 1.21754 1.23027 1.27588 1.28868 1.23027 1.242 1.28868 1.30049 1.05046 1.06136 1.11741 1.1282 1.06136 1.07122 1.1282 1.13781 1.11741 1.1282 1.18111 1.19176 1.1282 1.13781 1.19176 1.20114 1.07122 1.07981 1.13781 1.14603 1.07981 1.08681 1.14603 1.15256 1.13781 1.14603 1.20114 1.20903 1.14603 1.15256 1.20903 1.21515 1.18111 1.19176 1.242 1.25255 1.19176 1.20114 1.25255 1.26174 1.242 1.25255 1.30049 1.31109 1.25255 1.26174 1.31109 1.32023 1.20114 1.20903 1.26174 1.26934 1.20903 1.21515 1.26934 1.27512 1.26174 1.26934 1.32023 1.32766 1.26934 1.27512 1.32766 1.33311 -0.0754658 -0.134267 0.0298994 -0.0155549 -0.134267 -0.201314 -0.0155549 -0.0682984 0.0298994 -0.0155549 0.133783 0.10089 -0.0155549 -0.0682984 0.10089 0.062102 -0.201314 -0.276784 -0.0682984 -0.128443 -0.276784 -0.361277 -0.128443 -0.196891 -0.0682984 -0.128443 0.062102 0.0176281 -0.128443 -0.196891 0.0176281 -0.0331155 0.133783 0.10089 0.235534 0.213898 0.10089 0.062102 0.213898 0.187819 0.235534 0.213898 0.334589 0.32263 0.213898 0.187819 0.32263 0.307475 0.062102 0.0176281 0.187819 0.157863 0.0176281 -0.0331155 0.157863 0.124006 0.187819 0.157863 0.307475 0.289903 0.157863 0.124006 0.289903 0.270305 -0.361277 -0.455134 -0.196891 -0.275033 -0.455134 -0.557459 -0.275033 -0.364287 -0.196891 -0.275033 -0.0331155 -0.0914412 -0.275033 -0.364287 -0.0914412 -0.159465 -0.557459 -0.664742 -0.364287 -0.464961 -0.664742 -0.769286 -0.464961 -0.573816 -0.364287 -0.464961 -0.159465 -0.240122 -0.464961 -0.573816 -0.240122 -0.336789 -0.0331155 -0.0914412 0.124006 0.0857113 -0.0914412 -0.159465 0.0857113 0.0418436 0.124006 0.0857113 0.270305 0.248812 0.0857113 0.0418436 0.248812 0.225355 -0.159465 -0.240122 0.0418436 -0.00966352 -0.240122 -0.336789 -0.00966352 -0.0728022 0.0418436 -0.00966352 0.225355 0.199654 -0.00966352 -0.0728022 0.199654 0.17114 0.334589 0.32263 0.430491 0.426594 0.32263 0.307475 0.426594 0.420427 0.430491 0.426594 0.522904 0.525574 0.426594 0.420427 0.525574 0.526596 0.307475 0.289903 0.420427 0.412808 0.289903 0.270305 0.412808 0.404283 0.420427 0.412808 0.526596 0.526696 0.412808 0.404283 0.526696 0.526387 0.522904 0.525574 0.611607 0.619556 0.525574 0.526596 0.619556 0.626242 0.611607 0.619556 0.696491 0.708659 0.619556 0.626242 0.708659 0.719785 0.526596 0.526696 0.626242 0.632236 0.526696 0.526387 0.632236 0.637937 0.626242 0.632236 0.719785 0.730281 0.632236 0.637937 0.730281 0.740412 0.270305 0.248812 0.404283 0.395247 0.248812 0.225355 0.395247 0.386035 0.404283 0.395247 0.526387 0.526056 0.395247 0.386035 0.526056 0.526015 0.225355 0.199654 0.386035 0.376985 0.199654 0.17114 0.376985 0.368566 0.386035 0.376985 0.526015 0.526532 0.376985 0.368566 0.526532 0.527854 0.526387 0.526056 0.637937 0.643618 0.526056 0.526015 0.643618 0.649452 0.637937 0.643618 0.740412 0.750332 0.643618 0.649452 0.750332 0.760087 0.526015 0.526532 0.649452 0.655512 0.526532 0.527854 0.655512 0.66175 0.649452 0.655512 0.760087 0.769613 0.655512 0.66175 0.769613 0.778706 -0.769286 -0.713501 -0.573816 -0.51563 -0.713501 -0.654276 -0.51563 -0.45211 -0.573816 -0.51563 -0.336789 -0.27188 -0.51563 -0.45211 -0.27188 -0.198629 -0.654276 -0.590753 -0.45211 -0.381086 -0.590753 -0.521529 -0.381086 -0.298686 -0.45211 -0.381086 -0.198629 -0.113587 -0.381086 -0.298686 -0.113587 -0.0126328 -0.336789 -0.27188 -0.0728022 -0.00532033 -0.27188 -0.198629 -0.00532033 0.06887 -0.0728022 -0.00532033 0.17114 0.228073 -0.00532033 0.06887 0.228073 0.287011 -0.198629 -0.113587 0.06887 0.149558 -0.113587 -0.0126328 0.149558 0.234009 0.06887 0.149558 0.287011 0.34645 0.149558 0.234009 0.34645 0.404081 -0.521529 -0.444272 -0.298686 -0.196742 -0.444272 -0.35454 -0.196742 -0.0569133 -0.298686 -0.196742 -0.0126328 0.106219 -0.196742 -0.0569133 0.106219 0.230596 -0.35454 -0.240357 -0.0569133 0.144125 -0.240357 0 0.144125 0.252763 -0.0569133 0.144125 0.230596 0.323072 0.144125 0.252763 0.323072 0.37455 -0.0126328 0.106219 0.234009 0.315788 0.106219 0.230596 0.315788 0.386787 0.234009 0.315788 0.404081 0.456758 0.315788 0.386787 0.456758 0.500481 0.230596 0.323072 0.386787 0.438649 0.323072 0.37455 0.438649 0.467709 0.386787 0.438649 0.500481 0.531399 0.438649 0.467709 0.531399 0.547773 0.17114 0.228073 0.368566 0.410912 0.228073 0.287011 0.410912 0.453258 0.368566 0.410912 0.527854 0.557808 0.410912 0.453258 0.557808 0.587092 0.287011 0.34645 0.453258 0.494512 0.34645 0.404081 0.494512 0.533183 0.453258 0.494512 0.587092 0.614911 0.494512 0.533183 0.614911 0.640202 0.527854 0.557808 0.66175 0.681851 0.557808 0.587092 0.681851 0.701027 0.66175 0.681851 0.778706 0.790858 0.681851 0.701027 0.790858 0.801966 0.587092 0.614911 0.701027 0.718663 0.614911 0.640202 0.718663 0.733935 0.701027 0.718663 0.801966 0.811525 0.718663 0.733935 0.811525 0.818856 0.404081 0.456758 0.533183 0.567314 0.456758 0.500481 0.567314 0.594505 0.533183 0.567314 0.640202 0.661577 0.567314 0.594505 0.661577 0.677345 0.500481 0.531399 0.594505 0.612366 0.531399 0.547773 0.612366 0.61972 0.594505 0.612366 0.677345 0.685803 0.612366 0.61972 0.685803 0.685978 0.640202 0.661577 0.733935 0.745769 0.661577 0.677345 0.745769 0.752867 0.733935 0.745769 0.818856 0.823085 0.745769 0.752867 0.823085 0.823148 0.677345 0.685803 0.752867 0.753892 0.685803 0.685978 0.753892 0.747975 0.752867 0.753892 0.823148 0.817934 0.753892 0.747975 0.817934 0.806635 -0.733691 -0.752497 -0.780927 -0.809382 -0.752497 -0.775529 -0.809382 -0.841183 -0.780927 -0.809382 -0.82618 -0.863403 -0.809382 -0.841183 -0.863403 -0.903165 -0.775529 -0.799829 -0.841183 -0.873821 -0.799829 -0.81856 -0.873821 -0.902861 -0.841183 -0.873821 -0.903165 -0.943309 -0.873821 -0.902861 -0.943309 -0.980731 -0.82618 -0.863403 -0.869717 -0.915026 -0.863403 -0.903165 -0.915026 -0.962143 -0.869717 -0.915026 -0.911752 -0.964607 -0.915026 -0.962143 -0.964607 -1.0186 -0.903165 -0.943309 -0.962143 -1.0092 -0.943309 -0.980731 -1.0092 -1.05391 -0.962143 -1.0092 -1.0186 -1.07213 -1.0092 -1.05391 -1.07213 -1.12344 -0.81856 -0.823979 -0.902861 -0.923437 -0.823979 -0.814522 -0.923437 -0.93337 -0.902861 -0.923437 -0.980731 -1.01227 -0.923437 -0.93337 -1.01227 -1.03613 -0.814522 -0.794616 -0.93337 -0.934068 -0.794616 -0.769286 -0.934068 -0.928474 -0.93337 -0.934068 -1.03613 -1.05254 -0.934068 -0.928474 -1.05254 -1.06301 -0.980731 -1.01227 -1.05391 -1.09414 -1.01227 -1.03613 -1.09414 -1.12857 -1.05391 -1.09414 -1.12344 -1.17104 -1.09414 -1.12857 -1.17104 -1.21402 -1.03613 -1.05254 -1.12857 -1.15706 -1.05254 -1.06301 -1.15706 -1.18035 -1.12857 -1.15706 -1.21402 -1.25215 -1.15706 -1.18035 -1.25215 -1.28579 -0.911752 -0.964607 -0.952457 -1.01242 -0.964607 -1.0186 -1.01242 -1.07292 -0.952457 -1.01242 -0.991979 -1.05869 -1.01242 -1.07292 -1.05869 -1.12537 -1.0186 -1.07213 -1.07292 -1.13255 -1.07213 -1.12344 -1.13255 -1.19 -1.07292 -1.13255 -1.12537 -1.19085 -1.13255 -1.19 -1.19085 -1.25408 -0.991979 -1.05869 -1.03044 -1.10358 -1.05869 -1.12537 -1.10358 -1.1762 -1.03044 -1.10358 -1.06794 -1.14727 -1.10358 -1.1762 -1.14727 -1.22561 -1.12537 -1.19085 -1.1762 -1.24729 -1.19085 -1.25408 -1.24729 -1.31607 -1.1762 -1.24729 -1.22561 -1.30215 -1.24729 -1.31607 -1.30215 -1.37629 -1.12344 -1.17104 -1.19 -1.24418 -1.17104 -1.21402 -1.24418 -1.29444 -1.19 -1.24418 -1.25408 -1.3143 -1.24418 -1.29444 -1.3143 -1.37106 -1.21402 -1.25215 -1.29444 -1.3406 -1.25215 -1.28579 -1.3406 -1.38285 -1.29444 -1.3406 -1.37106 -1.4242 -1.3406 -1.38285 -1.4242 -1.4738 -1.25408 -1.3143 -1.31607 -1.38198 -1.3143 -1.37106 -1.38198 -1.44469 -1.31607 -1.38198 -1.37629 -1.44766 -1.38198 -1.44469 -1.44766 -1.51596 -1.37106 -1.4242 -1.44469 -1.50405 -1.4242 -1.4738 -1.50405 -1.56 -1.44469 -1.50405 -1.51596 -1.58088 -1.50405 -1.56 -1.58088 -1.64183 -0.616196 -0.624423 -0.644544 -0.655623 -0.624423 -0.634255 -0.655623 -0.668282 -0.644544 -0.655623 -0.672939 -0.686677 -0.655623 -0.668282 -0.686677 -0.701929 -0.634255 -0.645828 -0.668282 -0.682608 -0.645828 -0.659275 -0.682608 -0.698676 -0.668282 -0.682608 -0.701929 -0.71874 -0.682608 -0.698676 -0.71874 -0.737136 -0.672939 -0.686677 -0.701304 -0.717518 -0.686677 -0.701929 -0.717518 -0.735151 -0.701304 -0.717518 -0.729582 -0.748099 -0.717518 -0.735151 -0.748099 -0.76792 -0.701929 -0.71874 -0.735151 -0.754211 -0.71874 -0.737136 -0.754211 -0.774688 -0.735151 -0.754211 -0.76792 -0.789024 -0.754211 -0.774688 -0.789024 -0.811372 -0.659275 -0.674716 -0.698676 -0.716541 -0.674716 -0.692245 -0.716541 -0.736227 -0.698676 -0.716541 -0.737136 -0.757122 -0.716541 -0.736227 -0.757122 -0.778674 -0.692245 -0.711912 -0.736227 -0.757716 -0.711912 -0.733691 -0.757716 -0.780927 -0.736227 -0.757716 -0.778674 -0.801731 -0.757716 -0.780927 -0.801731 -0.82618 -0.737136 -0.757122 -0.774688 -0.796549 -0.757122 -0.778674 -0.796549 -0.819738 -0.774688 -0.796549 -0.811372 -0.834907 -0.796549 -0.819738 -0.834907 -0.859552 -0.778674 -0.801731 -0.819738 -0.844169 -0.801731 -0.82618 -0.844169 -0.869717 -0.819738 -0.844169 -0.859552 -0.885209 -0.844169 -0.869717 -0.885209 -0.911752 -0.729582 -0.748099 -0.757726 -0.778385 -0.748099 -0.76792 -0.778385 -0.800222 -0.757726 -0.778385 -0.7857 -0.808354 -0.778385 -0.800222 -0.808354 -0.832052 -0.76792 -0.789024 -0.800222 -0.823191 -0.789024 -0.811372 -0.823191 -0.847233 -0.800222 -0.823191 -0.832052 -0.85673 -0.823191 -0.847233 -0.85673 -0.882317