# vtk DataFile Version 3.0
#This file was generated by the deal.II library on 2020/5/26 at 18:33:33
ASCII
DATASET UNSTRUCTURED_GRID

POINTS 496 double
-0.594794 -0.6188 0
-0.547397 -0.8094 0
-0.418835 -0.452068 0
-0.334417 -0.726034 0
-0.547397 -0.8094 0
-0.5 -1 0
-0.334417 -0.726034 0
-0.25 -1 0
-0.418835 -0.452068 0
-0.334417 -0.726034 0
-0.242875 -0.285335 0
-0.121437 -0.642668 0
-0.334417 -0.726034 0
-0.25 -1 0
-0.121437 -0.642668 0
-2.7528e-12 -1 0
-1 -0.5 0
-0.797397 -0.5594 0
-1 -0.25 0
-0.709417 -0.351034 0
-0.797397 -0.5594 0
-0.594794 -0.6188 0
-0.709417 -0.351034 0
-0.418835 -0.452068 0
-1 -0.25 0
-0.709417 -0.351034 0
-1 2.7528e-12 0
-0.621437 -0.142668 0
-0.709417 -0.351034 0
-0.418835 -0.452068 0
-0.621437 -0.142668 0
-0.242875 -0.285335 0
-1 -0.5 0
-1 -0.75 0
-0.797397 -0.5594 0
-0.773699 -0.7797 0
-1 -0.75 0
-1 -1 0
-0.773699 -0.7797 0
-0.75 -1 0
-0.797397 -0.5594 0
-0.773699 -0.7797 0
-0.594794 -0.6188 0
-0.547397 -0.8094 0
-0.773699 -0.7797 0
-0.75 -1 0
-0.547397 -0.8094 0
-0.5 -1 0
-0.466976 0.442128 0
-0.261011 0.437564 0
-0.483488 0.721064 0
-0.255506 0.718782 0
-0.261011 0.437564 0
-0.0550467 0.433 0
-0.255506 0.718782 0
-0.0275233 0.7165 0
-0.483488 0.721064 0
-0.255506 0.718782 0
-0.5 1 0
-0.25 1 0
-0.255506 0.718782 0
-0.0275233 0.7165 0
-0.25 1 0
2.7528e-12 1 0
-1 0.5 0
-0.733488 0.471064 0
-1 0.75 0
-0.741744 0.735532 0
-0.733488 0.471064 0
-0.466976 0.442128 0
-0.741744 0.735532 0
-0.483488 0.721064 0
-1 0.75 0
-0.741744 0.735532 0
-1 1 0
-0.75 1 0
-0.741744 0.735532 0
-0.483488 0.721064 0
-0.75 1 0
-0.5 1 0
-1 2.7528e-12 0
-0.621437 -0.142668 0
-1 0.25 0
-0.677463 0.164198 0
-0.621437 -0.142668 0
-0.242875 -0.285335 0
-0.677463 0.164198 0
-0.354925 0.0783963 0
-1 0.25 0
-0.677463 0.164198 0
-1 0.5 0
-0.733488 0.471064 0
-0.677463 0.164198 0
-0.354925 0.0783963 0
-0.733488 0.471064 0
-0.466976 0.442128 0
-0.242875 -0.285335 0
-0.121437 -0.142668 0
-0.354925 0.0783963 0
-0.191224 0.147448 0
-0.121437 -0.142668 0
0 0 0
-0.191224 0.147448 0
-0.0275233 0.2165 0
-0.354925 0.0783963 0
-0.191224 0.147448 0
-0.466976 0.442128 0
-0.261011 0.437564 0
-0.191224 0.147448 0
-0.0275233 0.2165 0
-0.261011 0.437564 0
-0.0550467 0.433 0
0.236872 -0.307713 0
-0.00300155 -0.296524 0
0.302317 -0.444683 0
0.0904396 -0.543675 0
-0.00300155 -0.296524 0
-0.242875 -0.285335 0
0.0904396 -0.543675 0
-0.121437 -0.642668 0
0.302317 -0.444683 0
0.0904396 -0.543675 0
0.367761 -0.581653 0
0.183881 -0.790827 0
0.0904396 -0.543675 0
-0.121437 -0.642668 0
0.183881 -0.790827 0
-2.7528e-12 -1 0
0.517144 -0.253727 0
0.377008 -0.28072 0
0.53149 -0.343959 0
0.416904 -0.394321 0
0.377008 -0.28072 0
0.236872 -0.307713 0
0.416904 -0.394321 0
0.302317 -0.444683 0
0.53149 -0.343959 0
0.416904 -0.394321 0
0.545836 -0.43419 0
0.456799 -0.507922 0
0.416904 -0.394321 0
0.302317 -0.444683 0
0.456799 -0.507922 0
0.367761 -0.581653 0
0.517144 -0.253727 0
0.508572 -0.126864 0
0.377008 -0.28072 0
0.376004 -0.14036 0
0.508572 -0.126864 0
0.5 -5e-09 0
0.376004 -0.14036 0
0.375 -3.75e-09 0
0.377008 -0.28072 0
0.376004 -0.14036 0
0.236872 -0.307713 0
0.243436 -0.153857 0
0.376004 -0.14036 0
0.375 -3.75e-09 0
0.243436 -0.153857 0
0.25 -2.5e-09 0
0.236872 -0.307713 0
0.243436 -0.153857 0
-0.00300155 -0.296524 0
0.0609992 -0.148262 0
0.243436 -0.153857 0
0.25 -2.5e-09 0
0.0609992 -0.148262 0
0.125 -1.25e-09 0
-0.00300155 -0.296524 0
0.0609992 -0.148262 0
-0.242875 -0.285335 0
-0.121437 -0.142668 0
0.0609992 -0.148262 0
0.125 -1.25e-09 0
-0.121437 -0.142668 0
0 0 0
0.75 0 0
0.751951 0.122672 0
0.625 0 0
0.630391 0.127987 0
0.751951 0.122672 0
0.753902 0.245343 0
0.630391 0.127987 0
0.635781 0.255974 0
0.625 0 0
0.630391 0.127987 0
0.5 0 0
0.508831 0.133303 0
0.630391 0.127987 0
0.635781 0.255974 0
0.508831 0.133303 0
0.517661 0.266605 0
1 0 0
1 0.125 0
0.875 0 0
0.875975 0.123836 0
1 0.125 0
1 0.25 0
0.875975 0.123836 0
0.876951 0.247672 0
0.875 0 0
0.875975 0.123836 0
0.75 0 0
0.751951 0.122672 0
0.875975 0.123836 0
0.876951 0.247672 0
0.751951 0.122672 0
0.753902 0.245343 0
1 0.25 0
1 0.375 0
0.876951 0.247672 0
0.870459 0.369793 0
1 0.375 0
1 0.5 0
0.870459 0.369793 0
0.863966 0.491914 0
0.876951 0.247672 0
0.870459 0.369793 0
0.753902 0.245343 0
0.740917 0.364586 0
0.870459 0.369793 0
0.863966 0.491914 0
0.740917 0.364586 0
0.727933 0.483829 0
0.753902 0.245343 0
0.740917 0.364586 0
0.635781 0.255974 0
0.637144 0.360404 0
0.740917 0.364586 0
0.727933 0.483829 0
0.637144 0.360404 0
0.638506 0.464833 0
0.635781 0.255974 0
0.637144 0.360404 0
0.517661 0.266605 0
0.53337 0.356221 0
0.637144 0.360404 0
0.638506 0.464833 0
0.53337 0.356221 0
0.549078 0.445837 0
0.647124 -0.712901 0
0.507443 -0.647277 0
0.573562 -0.856451 0
0.378721 -0.823639 0
0.507443 -0.647277 0
0.367761 -0.581653 0
0.378721 -0.823639 0
0.183881 -0.790827 0
0.573562 -0.856451 0
0.378721 -0.823639 0
0.5 -1 0
0.25 -1 0
0.378721 -0.823639 0
0.183881 -0.790827 0
0.25 -1 0
-2.7528e-12 -1 0
1 -0.75 0
0.823562 -0.731451 0
1 -0.875 0
0.786781 -0.865725 0
0.823562 -0.731451 0
0.647124 -0.712901 0
0.786781 -0.865725 0
0.573562 -0.856451 0
1 -0.875 0
0.786781 -0.865725 0
1 -1 0
0.75 -1 0
0.786781 -0.865725 0
0.573562 -0.856451 0
0.75 -1 0
0.5 -1 0
1 -0.5 0
0.86959 -0.486948 0
1 -0.625 0
0.846576 -0.609199 0
0.86959 -0.486948 0
0.739181 -0.473895 0
0.846576 -0.609199 0
0.693152 -0.593398 0
1 -0.625 0
0.846576 -0.609199 0
1 -0.75 0
0.823562 -0.731451 0
0.846576 -0.609199 0
0.693152 -0.593398 0
0.823562 -0.731451 0
0.647124 -0.712901 0
0.739181 -0.473895 0
0.642509 -0.454043 0
0.693152 -0.593398 0
0.574976 -0.55066 0
0.642509 -0.454043 0
0.545836 -0.43419 0
0.574976 -0.55066 0
0.456799 -0.507922 0
0.693152 -0.593398 0
0.574976 -0.55066 0
0.647124 -0.712901 0
0.507443 -0.647277 0
0.574976 -0.55066 0
0.456799 -0.507922 0
0.507443 -0.647277 0
0.367761 -0.581653 0
0.25 0 0
0.258927 0.170547 0
0.125 0 0
0.115702 0.193524 0
0.258927 0.170547 0
0.267855 0.341094 0
0.115702 0.193524 0
0.106404 0.387047 0
0.125 0 0
0.115702 0.193524 0
0 0 0
-0.0275233 0.2165 0
0.115702 0.193524 0
0.106404 0.387047 0
-0.0275233 0.2165 0
-0.0550467 0.433 0
0.5 0 0
0.508831 0.133303 0
0.375 0 0
0.383879 0.151925 0
0.508831 0.133303 0
0.517661 0.266605 0
0.383879 0.151925 0
0.392758 0.30385 0
0.375 0 0
0.383879 0.151925 0
0.25 0 0
0.258927 0.170547 0
0.383879 0.151925 0
0.392758 0.30385 0
0.258927 0.170547 0
0.267855 0.341094 0
0.517661 0.266605 0
0.53337 0.356221 0
0.392758 0.30385 0
0.429475 0.414046 0
0.53337 0.356221 0
0.549078 0.445837 0
0.429475 0.414046 0
0.466191 0.524243 0
0.392758 0.30385 0
0.429475 0.414046 0
0.267855 0.341094 0
0.325579 0.471871 0
0.429475 0.414046 0
0.466191 0.524243 0
0.325579 0.471871 0
0.383304 0.602648 0
0.267855 0.341094 0
0.325579 0.471871 0
0.106404 0.387047 0
0.149028 0.594186 0
0.325579 0.471871 0
0.383304 0.602648 0
0.149028 0.594186 0
0.191652 0.801324 0
0.106404 0.387047 0
0.149028 0.594186 0
-0.0550467 0.433 0
-0.0275233 0.7165 0
0.149028 0.594186 0
0.191652 0.801324 0
-0.0275233 0.7165 0
2.7528e-12 1 0
1 -0.25 0
1 -0.125 0
0.877673 -0.245525 0
0.876337 -0.122763 0
1 -0.125 0
1 -1e-08 0
0.876337 -0.122763 0
0.875 -8.75e-09 0
0.877673 -0.245525 0
0.876337 -0.122763 0
0.755346 -0.24105 0
0.752673 -0.120525 0
0.876337 -0.122763 0
0.875 -8.75e-09 0
0.752673 -0.120525 0
0.75 -7.5e-09 0
0.755346 -0.24105 0
0.752673 -0.120525 0
0.636245 -0.247389 0
0.630623 -0.123694 0
0.752673 -0.120525 0
0.75 -7.5e-09 0
0.630623 -0.123694 0
0.625 -6.25e-09 0
0.636245 -0.247389 0
0.630623 -0.123694 0
0.517144 -0.253727 0
0.508572 -0.126864 0
0.630623 -0.123694 0
0.625 -6.25e-09 0
0.508572 -0.126864 0
0.5 -5e-09 0
0.755346 -0.24105 0
0.636245 -0.247389 0
0.747264 -0.357473 0
0.639377 -0.350716 0
0.636245 -0.247389 0
0.517144 -0.253727 0
0.639377 -0.350716 0
0.53149 -0.343959 0
0.747264 -0.357473 0
0.639377 -0.350716 0
0.739181 -0.473895 0
0.642509 -0.454043 0
0.639377 -0.350716 0
0.53149 -0.343959 0
0.642509 -0.454043 0
0.545836 -0.43419 0
1 -0.25 0
0.877673 -0.245525 0
1 -0.375 0
0.873632 -0.366236 0
0.877673 -0.245525 0
0.755346 -0.24105 0
0.873632 -0.366236 0
0.747264 -0.357473 0
1 -0.375 0
0.873632 -0.366236 0
1 -0.5 0
0.86959 -0.486948 0
0.873632 -0.366236 0
0.747264 -0.357473 0
0.86959 -0.486948 0
0.739181 -0.473895 0
1 0.75 0
1 0.875 0
0.822663 0.735755 0
0.786332 0.867878 0
1 0.875 0
1 1 0
0.786332 0.867878 0
0.75 1 0
0.822663 0.735755 0
0.786332 0.867878 0
0.645326 0.721511 0
0.572663 0.860755 0
0.786332 0.867878 0
0.75 1 0
0.572663 0.860755 0
0.5 1 0
0.645326 0.721511 0
0.572663 0.860755 0
0.514315 0.66208 0
0.382158 0.83104 0
0.572663 0.860755 0
0.5 1 0
0.382158 0.83104 0
0.25 1 0
0.514315 0.66208 0
0.382158 0.83104 0
0.383304 0.602648 0
0.191652 0.801324 0
0.382158 0.83104 0
0.25 1 0
0.191652 0.801324 0
2.7528e-12 1 0
0.727933 0.483829 0
0.68663 0.60267 0
0.638506 0.464833 0
0.57641 0.563456 0
0.68663 0.60267 0
0.645326 0.721511 0
0.57641 0.563456 0
0.514315 0.66208 0
0.638506 0.464833 0
0.57641 0.563456 0
0.549078 0.445837 0
0.466191 0.524243 0
0.57641 0.563456 0
0.514315 0.66208 0
0.466191 0.524243 0
0.383304 0.602648 0
1 0.5 0
1 0.625 0
0.863966 0.491914 0
0.843315 0.613835 0
1 0.625 0
1 0.75 0
0.843315 0.613835 0
0.822663 0.735755 0
0.863966 0.491914 0
0.843315 0.613835 0
0.727933 0.483829 0
0.68663 0.60267 0
0.843315 0.613835 0
0.822663 0.735755 0
0.68663 0.60267 0
0.645326 0.721511 0

CELLS 124 620
4	0	1	3	2
4	4	5	7	6
4	8	9	11	10
4	12	13	15	14
4	16	17	19	18
4	20	21	23	22
4	24	25	27	26
4	28	29	31	30
4	32	33	35	34
4	36	37	39	38
4	40	41	43	42
4	44	45	47	46
4	48	49	51	50
4	52	53	55	54
4	56	57	59	58
4	60	61	63	62
4	64	65	67	66
4	68	69	71	70
4	72	73	75	74
4	76	77	79	78
4	80	81	83	82
4	84	85	87	86
4	88	89	91	90
4	92	93	95	94
4	96	97	99	98
4	100	101	103	102
4	104	105	107	106
4	108	109	111	110
4	112	113	115	114
4	116	117	119	118
4	120	121	123	122
4	124	125	127	126
4	128	129	131	130
4	132	133	135	134
4	136	137	139	138
4	140	141	143	142
4	144	145	147	146
4	148	149	151	150
4	152	153	155	154
4	156	157	159	158
4	160	161	163	162
4	164	165	167	166
4	168	169	171	170
4	172	173	175	174
4	176	177	179	178
4	180	181	183	182
4	184	185	187	186
4	188	189	191	190
4	192	193	195	194
4	196	197	199	198
4	200	201	203	202
4	204	205	207	206
4	208	209	211	210
4	212	213	215	214
4	216	217	219	218
4	220	221	223	222
4	224	225	227	226
4	228	229	231	230
4	232	233	235	234
4	236	237	239	238
4	240	241	243	242
4	244	245	247	246
4	248	249	251	250
4	252	253	255	254
4	256	257	259	258
4	260	261	263	262
4	264	265	267	266
4	268	269	271	270
4	272	273	275	274
4	276	277	279	278
4	280	281	283	282
4	284	285	287	286
4	288	289	291	290
4	292	293	295	294
4	296	297	299	298
4	300	301	303	302
4	304	305	307	306
4	308	309	311	310
4	312	313	315	314
4	316	317	319	318
4	320	321	323	322
4	324	325	327	326
4	328	329	331	330
4	332	333	335	334
4	336	337	339	338
4	340	341	343	342
4	344	345	347	346
4	348	349	351	350
4	352	353	355	354
4	356	357	359	358
4	360	361	363	362
4	364	365	367	366
4	368	369	371	370
4	372	373	375	374
4	376	377	379	378
4	380	381	383	382
4	384	385	387	386
4	388	389	391	390
4	392	393	395	394
4	396	397	399	398
4	400	401	403	402
4	404	405	407	406
4	408	409	411	410
4	412	413	415	414
4	416	417	419	418
4	420	421	423	422
4	424	425	427	426
4	428	429	431	430
4	432	433	435	434
4	436	437	439	438
4	440	441	443	442
4	444	445	447	446
4	448	449	451	450
4	452	453	455	454
4	456	457	459	458
4	460	461	463	462
4	464	465	467	466
4	468	469	471	470
4	472	473	475	474
4	476	477	479	478
4	480	481	483	482
4	484	485	487	486
4	488	489	491	490
4	492	493	495	494

CELL_TYPES 124
 9 9 9 9 9 9 9 9 9 9 9 9 9 9 9 9 9 9 9 9 9 9 9 9 9 9 9 9 9 9 9 9 9 9 9 9 9 9 9 9 9 9 9 9 9 9 9 9 9 9 9 9 9 9 9 9 9 9 9 9 9 9 9 9 9 9 9 9 9 9 9 9 9 9 9 9 9 9 9 9 9 9 9 9 9 9 9 9 9 9 9 9 9 9 9 9 9 9 9 9 9 9 9 9 9 9 9 9 9 9 9 9 9 9 9 9 9 9 9 9 9 9 9 9
POINT_DATA 496
SCALARS solution_0 double 1
LOOKUP_TABLE default
-1.17929 -1.4291 -0.989415 -1.37077 -1.4291 -1.64636 -1.37077 -1.6665 -0.989415 -1.37077 -0.775242 -1.28419 -1.37077 -1.6665 -1.28419 -1.64183 -0.891082 -1.0385 -0.497499 -0.73611 -1.0385 -1.17929 -0.73611 -0.989415 -0.497499 -0.73611 -0.0754658 -0.35736 -0.73611 -0.989415 -0.35736 -0.775242 -0.891082 -1.23584 -1.0385 -1.33837 -1.23584 -1.53193 -1.33837 -1.59571 -1.0385 -1.33837 -1.17929 -1.4291 -1.33837 -1.59571 -1.4291 -1.64636 0.780549 0.823519 1.0886 1.1021 0.823519 0.806334 1.1021 1.06175 1.0886 1.1021 1.33311 1.33044 1.1021 1.06175 1.33044 1.2841 0.696491 0.742466 0.998561 1.05165 0.742466 0.780549 1.05165 1.0886 0.998561 1.05165 1.24813 1.30049 1.05165 1.0886 1.30049 1.33311 -0.0754658 -0.35736 0.334589 0.272915 -0.35736 -0.775242 0.272915 0.174724 0.334589 0.272915 0.696491 0.742466 0.272915 0.174724 0.742466 0.780549 -0.775242 -0.512241 0.174724 0.430117 -0.512241 0 0.430117 0.533047 0.174724 0.430117 0.780549 0.823519 0.430117 0.533047 0.823519 0.806334 -0.72696 -0.811137 -0.908003 -1.11993 -0.811137 -0.775242 -1.11993 -1.28419 -0.908003 -1.11993 -1.06522 -1.37471 -1.11993 -1.28419 -1.37471 -1.64183 -0.613228 -0.654775 -0.726758 -0.807899 -0.654775 -0.72696 -0.807899 -0.908003 -0.726758 -0.807899 -0.838568 -0.947643 -0.807899 -0.908003 -0.947643 -1.06522 -0.613228 -0.463698 -0.654775 -0.45355 -0.463698 -0.357041 -0.45355 -0.305275 -0.654775 -0.45355 -0.72696 -0.465242 -0.45355 -0.305275 -0.465242 -0.244801 -0.72696 -0.465242 -0.811137 -0.5041 -0.465242 -0.244801 -0.5041 -0.167844 -0.811137 -0.5041 -0.775242 -0.512241 -0.5041 -0.167844 -0.512241 0 0.463219 0.472696 0.419444 0.437492 0.472696 0.520438 0.437492 0.50283 0.419444 0.437492 0.371456 0.403553 0.437492 0.50283 0.403553 0.492989 0.541768 0.552796 0.503777 0.511198 0.552796 0.584763 0.511198 0.550484 0.503777 0.511198 0.463219 0.472696 0.511198 0.550484 0.472696 0.520438 0.584763 0.634669 0.550484 0.609074 0.634669 0.698484 0.609074 0.682533 0.550484 0.609074 0.520438 0.588021 0.609074 0.682533 0.588021 0.670872 0.520438 0.588021 0.50283 0.575089 0.588021 0.670872 0.575089 0.655827 0.50283 0.575089 0.492989 0.566872 0.575089 0.655827 0.566872 0.642892 -1.14706 -1.10428 -1.32091 -1.34345 -1.10428 -1.06522 -1.34345 -1.37471 -1.32091 -1.34345 -1.49579 -1.57695 -1.34345 -1.37471 -1.57695 -1.64183 -1.12991 -1.13614 -1.2492 -1.28072 -1.13614 -1.14706 -1.28072 -1.32091 -1.2492 -1.28072 -1.36642 -1.42199 -1.28072 -1.32091 -1.42199 -1.49579 -0.89252 -0.878909 -1.01019 -1.0061 -0.878909 -0.868458 -1.0061 -1.00603 -1.01019 -1.0061 -1.12991 -1.13614 -1.0061 -1.00603 -1.13614 -1.14706 -0.868458 -0.85224 -1.00603 -0.975429 -0.85224 -0.838568 -0.975429 -0.947643 -1.00603 -0.975429 -1.14706 -1.10428 -0.975429 -0.947643 -1.10428 -1.06522 0.254684 0.381667 0.174621 0.438355 0.381667 0.578135 0.438355 0.690447 0.174621 0.438355 0 0.533047 0.438355 0.690447 0.533047 0.806334 0.371456 0.403553 0.3176 0.382265 0.403553 0.492989 0.382265 0.52095 0.3176 0.382265 0.254684 0.381667 0.382265 0.52095 0.381667 0.578135 0.492989 0.566872 0.52095 0.624392 0.566872 0.642892 0.624392 0.722014 0.52095 0.624392 0.578135 0.701769 0.624392 0.722014 0.701769 0.812914 0.578135 0.701769 0.690447 0.886413 0.701769 0.812914 0.886413 1.05735 0.690447 0.886413 0.806334 1.06175 0.886413 1.05735 1.06175 1.2841 -0.677977 -0.590067 -0.648437 -0.551958 -0.590067 -0.520744 -0.551958 -0.484227 -0.648437 -0.551958 -0.623482 -0.51785 -0.551958 -0.484227 -0.51785 -0.445243 -0.623482 -0.51785 -0.614551 -0.489824 -0.51785 -0.445243 -0.489824 -0.403167 -0.614551 -0.489824 -0.613228 -0.463698 -0.489824 -0.403167 -0.463698 -0.357041 -0.623482 -0.614551 -0.74168 -0.731745 -0.614551 -0.613228 -0.731745 -0.726758 -0.74168 -0.731745 -0.868458 -0.85224 -0.731745 -0.726758 -0.85224 -0.838568 -0.677977 -0.648437 -0.780345 -0.758981 -0.648437 -0.623482 -0.758981 -0.74168 -0.780345 -0.758981 -0.89252 -0.878909 -0.758981 -0.74168 -0.878909 -0.868458 0.851725 0.934634 0.854835 0.957287 0.934634 1.0187 0.957287 1.05968 0.854835 0.957287 0.863645 0.990699 0.957287 1.05968 0.990699 1.1244 0.863645 0.990699 0.835997 1.01661 0.990699 1.1244 1.01661 1.2063 0.835997 1.01661 0.812914 1.05735 1.01661 1.2063 1.05735 1.2841 0.670872 0.763494 0.655827 0.741309 0.763494 0.863645 0.741309 0.835997 0.655827 0.741309 0.642892 0.722014 0.741309 0.835997 0.722014 0.812914 0.698484 0.772052 0.682533 0.765257 0.772052 0.851725 0.765257 0.854835 0.682533 0.765257 0.670872 0.763494 0.765257 0.854835 0.763494 0.863645 
SCALARS solution_1 double 1
LOOKUP_TABLE default
2.95261 2.84626 2.42065 2.23146 2.84626 2.75997 2.23146 2.11456 2.42065 2.23146 1.78302 1.53433 2.23146 2.11456 1.53433 1.4824 4.0155 3.49227 4.06097 3.26853 3.49227 2.95261 3.26853 2.42065 4.06097 3.26853 4.09789 3.03919 3.26853 2.42065 3.03919 1.78302 4.0155 3.97619 3.49227 3.42743 3.97619 3.9531 3.42743 3.37839 3.49227 3.42743 2.95261 2.84626 3.42743 3.37839 2.84626 2.75997 2.7489 2.12387 2.93616 2.34529 2.12387 1.45746 2.34529 1.77389 2.93616 2.34529 3.12638 2.56889 2.34529 1.77389 2.56889 2.05486 4.13824 3.47721 4.16723 3.57572 3.47721 2.7489 3.57572 2.93616 4.16723 3.57572 4.21505 3.68314 3.57572 2.93616 3.68314 3.12638 4.09789 3.03919 4.1202 3.25041 3.03919 1.78302 3.25041 2.23586 4.1202 3.25041 4.13824 3.47721 3.25041 2.23586 3.47721 2.7489 1.78302 1.18696 2.23586 1.62964 1.18696 0 1.62964 0.973899 2.23586 1.62964 2.7489 2.12387 1.62964 0.973899 2.12387 1.45746 0.0591264 0.762923 0.141127 0.781038 0.762923 1.78302 0.781038 1.53433 0.141127 0.781038 0.205061 0.837558 0.781038 1.53433 0.837558 1.4824 -0.448976 -0.226452 -0.348987 -0.124188 -0.226452 0.0591264 -0.124188 0.141127 -0.348987 -0.124188 -0.254723 -0.0362163 -0.124188 0.141127 -0.0362163 0.205061 -0.448976 -0.611782 -0.226452 -0.441747 -0.611782 -0.782746 -0.441747 -0.669258 -0.226452 -0.441747 0.0591264 -0.226297 -0.441747 -0.669258 -0.226297 -0.536679 0.0591264 -0.226297 0.762923 0.197963 -0.226297 -0.536679 0.197963 -0.367967 0.762923 0.197963 1.78302 1.18696 0.197963 -0.367967 1.18696 0 0 0.138187 0 0.161735 0.138187 0.275608 0.161735 0.320759 0 0.161735 0 0.190348 0.161735 0.320759 0.190348 0.374883 0 0.105116 0 0.123039 0.105116 0.212619 0.123039 0.246444 0 0.123039 0 0.138187 0.123039 0.246444 0.138187 0.275608 0.212619 0.324211 0.246444 0.371713 0.324211 0.440563 0.371713 0.49926 0.246444 0.371713 0.275608 0.413687 0.371713 0.49926 0.413687 0.553535 0.275608 0.413687 0.320759 0.449165 0.413687 0.553535 0.449165 0.575478 0.320759 0.449165 0.374883 0.490115 0.449165 0.575478 0.490115 0.599993 -0.0754536 0.0540782 0.180815 0.472482 0.0540782 0.205061 0.472482 0.837558 0.180815 0.472482 0.444237 0.915127 0.472482 0.837558 0.915127 1.4824 -0.475211 -0.283318 -0.354482 -0.107041 -0.283318 -0.0754536 -0.107041 0.180815 -0.354482 -0.107041 -0.234005 0.0678098 -0.107041 0.180815 0.0678098 0.444237 -0.712312 -0.578188 -0.594949 -0.431297 -0.578188 -0.44547 -0.431297 -0.262683 -0.594949 -0.431297 -0.475211 -0.283318 -0.431297 -0.262683 -0.283318 -0.0754536 -0.44547 -0.353453 -0.262683 -0.155459 -0.353453 -0.254723 -0.155459 -0.0362163 -0.262683 -0.155459 -0.0754536 0.0540782 -0.155459 -0.0362163 0.0540782 0.205061 0 0.338756 0 0.523265 0.338756 0.646896 0.523265 0.961239 0 0.523265 0 0.973899 0.523265 0.961239 0.973899 1.45746 0 0.190348 0 0.250919 0.190348 0.374883 0.250919 0.489644 0 0.250919 0 0.338756 0.250919 0.489644 0.338756 0.646896 0.374883 0.490115 0.489644 0.631474 0.490115 0.599993 0.631474 0.759105 0.489644 0.631474 0.646896 0.80513 0.631474 0.759105 0.80513 0.939726 0.646896 0.80513 0.961239 1.23667 0.80513 0.939726 1.23667 1.46542 0.961239 1.23667 1.45746 1.77389 1.23667 1.46542 1.77389 2.05486 -0.93523 -1.04004 -0.823293 -0.942025 -1.04004 -1.14163 -0.942025 -1.06158 -0.823293 -0.942025 -0.713623 -0.843611 -0.942025 -1.06158 -0.843611 -0.976112 -0.713623 -0.843611 -0.588381 -0.73374 -0.843611 -0.976112 -0.73374 -0.883866 -0.588381 -0.73374 -0.448976 -0.611782 -0.73374 -0.883866 -0.611782 -0.782746 -0.713623 -0.588381 -0.57926 -0.469166 -0.588381 -0.448976 -0.469166 -0.348987 -0.57926 -0.469166 -0.44547 -0.353453 -0.469166 -0.348987 -0.353453 -0.254723 -0.93523 -0.823293 -0.82601 -0.701196 -0.823293 -0.713623 -0.701196 -0.57926 -0.82601 -0.701196 -0.712312 -0.578188 -0.701196 -0.57926 -0.578188 -0.44547 0.685741 0.812438 0.774216 0.933851 0.812438 0.94027 0.933851 1.0939 0.774216 0.933851 0.872185 1.08802 0.933851 1.0939 1.08802 1.31522 0.872185 1.08802 0.90061 1.24466 1.08802 1.31522 1.24466 1.63079 0.90061 1.24466 0.939726 1.46542 1.24466 1.63079 1.46542 2.05486 0.553535 0.710145 0.575478 0.732078 0.710145 0.872185 0.732078 0.90061 0.575478 0.732078 0.599993 0.759105 0.732078 0.90061 0.759105 0.939726 0.440563 0.561382 0.49926 0.635653 0.561382 0.685741 0.635653 0.774216 0.49926 0.635653 0.553535 0.710145 0.635653 0.774216 0.710145 0.872185 
