# vtk DataFile Version 3.0
#This file was generated by the deal.II library on 2020/5/26 at 18:33:33
ASCII
DATASET UNSTRUCTURED_GRID

POINTS 124 double
-0.594794 -0.6188 0
-0.5 -1 0
-0.242875 -0.285335 0
-2.7528e-12 -1 0
-1 -0.5 0
-0.594794 -0.6188 0
-1 2.7528e-12 0
-0.242875 -0.285335 0
-1 -0.5 0
-1 -1 0
-0.594794 -0.6188 0
-0.5 -1 0
-0.466976 0.442128 0
-0.0550467 0.433 0
-0.5 1 0
2.7528e-12 1 0
-1 0.5 0
-0.466976 0.442128 0
-1 1 0
-0.5 1 0
-1 2.7528e-12 0
-0.242875 -0.285335 0
-1 0.5 0
-0.466976 0.442128 0
-0.242875 -0.285335 0
0 0 0
-0.466976 0.442128 0
-0.0550467 0.433 0
0.236872 -0.307713 0
-0.242875 -0.285335 0
0.367761 -0.581653 0
-2.7528e-12 -1 0
0.517144 -0.253727 0
0.236872 -0.307713 0
0.545836 -0.43419 0
0.367761 -0.581653 0
0.517144 -0.253727 0
0.5 -5e-09 0
0.236872 -0.307713 0
0.25 -2.5e-09 0
0.236872 -0.307713 0
0.25 -2.5e-09 0
-0.242875 -0.285335 0
0 0 0
0.75 0 0
0.753902 0.245343 0
0.5 0 0
0.517661 0.266605 0
1 0 0
1 0.25 0
0.75 0 0
0.753902 0.245343 0
1 0.25 0
1 0.5 0
0.753902 0.245343 0
0.727933 0.483829 0
0.753902 0.245343 0
0.727933 0.483829 0
0.517661 0.266605 0
0.549078 0.445837 0
0.647124 -0.712901 0
0.367761 -0.581653 0
0.5 -1 0
-2.7528e-12 -1 0
1 -0.75 0
0.647124 -0.712901 0
1 -1 0
0.5 -1 0
1 -0.5 0
0.739181 -0.473895 0
1 -0.75 0
0.647124 -0.712901 0
0.739181 -0.473895 0
0.545836 -0.43419 0
0.647124 -0.712901 0
0.367761 -0.581653 0
0.25 0 0
0.267855 0.341094 0
0 0 0
-0.0550467 0.433 0
0.5 0 0
0.517661 0.266605 0
0.25 0 0
0.267855 0.341094 0
0.517661 0.266605 0
0.549078 0.445837 0
0.267855 0.341094 0
0.383304 0.602648 0
0.267855 0.341094 0
0.383304 0.602648 0
-0.0550467 0.433 0
2.7528e-12 1 0
1 -0.25 0
1 -1e-08 0
0.755346 -0.24105 0
0.75 -7.5e-09 0
0.755346 -0.24105 0
0.75 -7.5e-09 0
0.517144 -0.253727 0
0.5 -5e-09 0
0.755346 -0.24105 0
0.517144 -0.253727 0
0.739181 -0.473895 0
0.545836 -0.43419 0
1 -0.25 0
0.755346 -0.24105 0
1 -0.5 0
0.739181 -0.473895 0
1 0.75 0
1 1 0
0.645326 0.721511 0
0.5 1 0
0.645326 0.721511 0
0.5 1 0
0.383304 0.602648 0
2.7528e-12 1 0
0.727933 0.483829 0
0.645326 0.721511 0
0.549078 0.445837 0
0.383304 0.602648 0
1 0.5 0
1 0.75 0
0.727933 0.483829 0
0.645326 0.721511 0

CELLS 31 155
4	0	1	3	2
4	4	5	7	6
4	8	9	11	10
4	12	13	15	14
4	16	17	19	18
4	20	21	23	22
4	24	25	27	26
4	28	29	31	30
4	32	33	35	34
4	36	37	39	38
4	40	41	43	42
4	44	45	47	46
4	48	49	51	50
4	52	53	55	54
4	56	57	59	58
4	60	61	63	62
4	64	65	67	66
4	68	69	71	70
4	72	73	75	74
4	76	77	79	78
4	80	81	83	82
4	84	85	87	86
4	88	89	91	90
4	92	93	95	94
4	96	97	99	98
4	100	101	103	102
4	104	105	107	106
4	108	109	111	110
4	112	113	115	114
4	116	117	119	118
4	120	121	123	122

CELL_TYPES 31
 9 9 9 9 9 9 9 9 9 9 9 9 9 9 9 9 9 9 9 9 9 9 9 9 9 9 9 9 9 9 9
POINT_DATA 124
SCALARS solution_0 double 1
LOOKUP_TABLE default
-1.1817 -1.64636 -0.78918 -1.64183 -0.891082 -1.1817 -0.0754658 -0.78918 -0.891082 -1.53193 -1.1817 -1.64636 0.80937 0.784905 1.33311 1.2841 0.696491 0.80937 1.24813 1.33311 -0.0754658 -0.78918 0.696491 0.80937 -0.78918 0 0.80937 0.784905 -0.707449 -0.78918 -1.06379 -1.64183 -0.606562 -0.707449 -0.8345 -1.06379 -0.606562 -0.357041 -0.707449 -0.244801 -0.707449 -0.244801 -0.78918 0 0.463219 0.519654 0.371456 0.490074 0.541768 0.584763 0.463219 0.519654 0.584763 0.698484 0.519654 0.670089 0.519654 0.670089 0.490074 0.641092 -1.14666 -1.06379 -1.49579 -1.64183 -1.12991 -1.14666 -1.36642 -1.49579 -0.89252 -0.866794 -1.12991 -1.14666 -0.866794 -0.8345 -1.14666 -1.06379 0.254684 0.568851 0 0.784905 0.371456 0.490074 0.254684 0.568851 0.490074 0.641092 0.568851 0.807333 0.568851 0.807333 0.784905 1.2841 -0.677977 -0.520744 -0.621244 -0.445243 -0.621244 -0.445243 -0.606562 -0.357041 -0.621244 -0.606562 -0.866794 -0.8345 -0.677977 -0.621244 -0.89252 -0.866794 0.851725 1.0187 0.862829 1.1244 0.862829 1.1244 0.807333 1.2841 0.670089 0.862829 0.641092 0.807333 0.698484 0.851725 0.670089 0.862829 
SCALARS solution_1 double 1
LOOKUP_TABLE default
2.94725 2.75997 1.77025 1.4824 4.0155 2.94725 4.09789 1.77025 4.0155 3.9531 2.94725 2.75997 2.73999 1.42955 3.12638 2.05486 4.13824 2.73999 4.21505 3.12638 4.09789 1.77025 4.13824 2.73999 1.77025 0 2.73999 1.42955 0.0350235 1.77025 0.20106 1.4824 -0.451469 0.0350235 -0.256552 0.20106 -0.451469 -0.782746 0.0350235 -0.536679 0.0350235 -0.536679 1.77025 0 0 0.275463 0 0.373871 0 0.212619 0 0.275463 0.212619 0.440563 0.275463 0.553374 0.275463 0.553374 0.373871 0.599024 -0.0753857 0.20106 0.444237 1.4824 -0.475211 -0.0753857 -0.234005 0.444237 -0.712312 -0.445836 -0.475211 -0.0753857 -0.445836 -0.256552 -0.0753857 0.20106 0 0.638552 0 1.42955 0 0.373871 0 0.638552 0.373871 0.599024 0.638552 0.936945 0.638552 0.936945 1.42955 2.05486 -0.93523 -1.14163 -0.714052 -0.976112 -0.714052 -0.976112 -0.451469 -0.782746 -0.714052 -0.451469 -0.445836 -0.256552 -0.93523 -0.714052 -0.712312 -0.445836 0.685741 0.94027 0.872509 1.31522 0.872509 1.31522 0.936945 2.05486 0.553374 0.872509 0.599024 0.936945 0.440563 0.685741 0.553374 0.872509 
