# vtk DataFile Version 3.0
#This file was generated by the deal.II library on 2020/5/26 at 18:33:34
ASCII
DATASET UNSTRUCTURED_GRID

POINTS 1984 double
-0.594794 -0.6188 0
-0.571096 -0.7141 0
-0.506814 -0.535434 0
-0.473861 -0.651575 0
-0.571096 -0.7141 0
-0.547397 -0.8094 0
-0.473861 -0.651575 0
-0.440907 -0.767717 0
-0.506814 -0.535434 0
-0.473861 -0.651575 0
-0.418835 -0.452068 0
-0.376626 -0.589051 0
-0.473861 -0.651575 0
-0.440907 -0.767717 0
-0.376626 -0.589051 0
-0.334417 -0.726034 0
-0.547397 -0.8094 0
-0.523699 -0.9047 0
-0.440907 -0.767717 0
-0.407954 -0.883858 0
-0.523699 -0.9047 0
-0.5 -1 0
-0.407954 -0.883858 0
-0.375 -1 0
-0.440907 -0.767717 0
-0.407954 -0.883858 0
-0.334417 -0.726034 0
-0.292209 -0.863017 0
-0.407954 -0.883858 0
-0.375 -1 0
-0.292209 -0.863017 0
-0.25 -1 0
-0.418835 -0.452068 0
-0.376626 -0.589051 0
-0.330855 -0.368701 0
-0.279391 -0.526526 0
-0.376626 -0.589051 0
-0.334417 -0.726034 0
-0.279391 -0.526526 0
-0.227927 -0.684351 0
-0.330855 -0.368701 0
-0.279391 -0.526526 0
-0.242875 -0.285335 0
-0.182156 -0.464002 0
-0.279391 -0.526526 0
-0.227927 -0.684351 0
-0.182156 -0.464002 0
-0.121437 -0.642668 0
-0.334417 -0.726034 0
-0.292209 -0.863017 0
-0.227927 -0.684351 0
-0.176464 -0.842175 0
-0.292209 -0.863017 0
-0.25 -1 0
-0.176464 -0.842175 0
-0.125 -1 0
-0.227927 -0.684351 0
-0.176464 -0.842175 0
-0.121437 -0.642668 0
-0.0607187 -0.821334 0
-0.176464 -0.842175 0
-0.125 -1 0
-0.0607187 -0.821334 0
-2.7528e-12 -1 0
-1 -0.5 0
-0.898699 -0.5297 0
-1 -0.375 0
-0.876704 -0.415108 0
-0.898699 -0.5297 0
-0.797397 -0.5594 0
-0.876704 -0.415108 0
-0.753407 -0.455217 0
-1 -0.375 0
-0.876704 -0.415108 0
-1 -0.25 0
-0.854709 -0.300517 0
-0.876704 -0.415108 0
-0.753407 -0.455217 0
-0.854709 -0.300517 0
-0.709417 -0.351034 0
-0.797397 -0.5594 0
-0.696096 -0.5891 0
-0.753407 -0.455217 0
-0.630111 -0.495325 0
-0.696096 -0.5891 0
-0.594794 -0.6188 0
-0.630111 -0.495325 0
-0.506814 -0.535434 0
-0.753407 -0.455217 0
-0.630111 -0.495325 0
-0.709417 -0.351034 0
-0.564126 -0.401551 0
-0.630111 -0.495325 0
-0.506814 -0.535434 0
-0.564126 -0.401551 0
-0.418835 -0.452068 0
-1 -0.25 0
-0.854709 -0.300517 0
-1 -0.125 0
-0.832714 -0.185925 0
-0.854709 -0.300517 0
-0.709417 -0.351034 0
-0.832714 -0.185925 0
-0.665427 -0.246851 0
-1 -0.125 0
-0.832714 -0.185925 0
-1 2.7528e-12 0
-0.810719 -0.0713339 0
-0.832714 -0.185925 0
-0.665427 -0.246851 0
-0.810719 -0.0713339 0
-0.621437 -0.142668 0
-0.709417 -0.351034 0
-0.564126 -0.401551 0
-0.665427 -0.246851 0
-0.498141 -0.307776 0
-0.564126 -0.401551 0
-0.418835 -0.452068 0
-0.498141 -0.307776 0
-0.330855 -0.368701 0
-0.665427 -0.246851 0
-0.498141 -0.307776 0
-0.621437 -0.142668 0
-0.432156 -0.214002 0
-0.498141 -0.307776 0
-0.330855 -0.368701 0
-0.432156 -0.214002 0
-0.242875 -0.285335 0
-1 -0.5 0
-1 -0.625 0
-0.898699 -0.5297 0
-0.892774 -0.647275 0
-1 -0.625 0
-1 -0.75 0
-0.892774 -0.647275 0
-0.886849 -0.76485 0
-0.898699 -0.5297 0
-0.892774 -0.647275 0
-0.797397 -0.5594 0
-0.785548 -0.66955 0
-0.892774 -0.647275 0
-0.886849 -0.76485 0
-0.785548 -0.66955 0
-0.773699 -0.7797 0
-1 -0.75 0
-1 -0.875 0
-0.886849 -0.76485 0
-0.880925 -0.882425 0
-1 -0.875 0
-1 -1 0
-0.880925 -0.882425 0
-0.875 -1 0
-0.886849 -0.76485 0
-0.880925 -0.882425 0
-0.773699 -0.7797 0
-0.761849 -0.88985 0
-0.880925 -0.882425 0
-0.875 -1 0
-0.761849 -0.88985 0
-0.75 -1 0
-0.797397 -0.5594 0
-0.785548 -0.66955 0
-0.696096 -0.5891 0
-0.678322 -0.691825 0
-0.785548 -0.66955 0
-0.773699 -0.7797 0
-0.678322 -0.691825 0
-0.660548 -0.79455 0
-0.696096 -0.5891 0
-0.678322 -0.691825 0
-0.594794 -0.6188 0
-0.571096 -0.7141 0
-0.678322 -0.691825 0
-0.660548 -0.79455 0
-0.571096 -0.7141 0
-0.547397 -0.8094 0
-0.773699 -0.7797 0
-0.761849 -0.88985 0
-0.660548 -0.79455 0
-0.642774 -0.897275 0
-0.761849 -0.88985 0
-0.75 -1 0
-0.642774 -0.897275 0
-0.625 -1 0
-0.660548 -0.79455 0
-0.642774 -0.897275 0
-0.547397 -0.8094 0
-0.523699 -0.9047 0
-0.642774 -0.897275 0
-0.625 -1 0
-0.523699 -0.9047 0
-0.5 -1 0
-0.466976 0.442128 0
-0.363993 0.439846 0
-0.475232 0.581596 0
-0.366745 0.579885 0
-0.363993 0.439846 0
-0.261011 0.437564 0
-0.366745 0.579885 0
-0.258258 0.578173 0
-0.475232 0.581596 0
-0.366745 0.579885 0
-0.483488 0.721064 0
-0.369497 0.719923 0
-0.366745 0.579885 0
-0.258258 0.578173 0
-0.369497 0.719923 0
-0.255506 0.718782 0
-0.261011 0.437564 0
-0.158029 0.435282 0
-0.258258 0.578173 0
-0.149772 0.576462 0
-0.158029 0.435282 0
-0.0550467 0.433 0
-0.149772 0.576462 0
-0.041285 0.57475 0
-0.258258 0.578173 0
-0.149772 0.576462 0
-0.255506 0.718782 0
-0.141514 0.717641 0
-0.149772 0.576462 0
-0.041285 0.57475 0
-0.141514 0.717641 0
-0.0275233 0.7165 0
-0.483488 0.721064 0
-0.369497 0.719923 0
-0.491744 0.860532 0
-0.372248 0.859962 0
-0.369497 0.719923 0
-0.255506 0.718782 0
-0.372248 0.859962 0
-0.252753 0.859391 0
-0.491744 0.860532 0
-0.372248 0.859962 0
-0.5 1 0
-0.375 1 0
-0.372248 0.859962 0
-0.252753 0.859391 0
-0.375 1 0
-0.25 1 0
-0.255506 0.718782 0
-0.141514 0.717641 0
-0.252753 0.859391 0
-0.133257 0.858821 0
-0.141514 0.717641 0
-0.0275233 0.7165 0
-0.133257 0.858821 0
-0.0137617 0.85825 0
-0.252753 0.859391 0
-0.133257 0.858821 0
-0.25 1 0
-0.125 1 0
-0.133257 0.858821 0
-0.0137617 0.85825 0
-0.125 1 0
2.7528e-12 1 0
-1 0.5 0
-0.866744 0.485532 0
-1 0.625 0
-0.868808 0.614149 0
-0.866744 0.485532 0
-0.733488 0.471064 0
-0.868808 0.614149 0
-0.737616 0.603298 0
-1 0.625 0
-0.868808 0.614149 0
-1 0.75 0
-0.870872 0.742766 0
-0.868808 0.614149 0
-0.737616 0.603298 0
-0.870872 0.742766 0
-0.741744 0.735532 0
-0.733488 0.471064 0
-0.600232 0.456596 0
-0.737616 0.603298 0
-0.606424 0.592447 0
-0.600232 0.456596 0
-0.466976 0.442128 0
-0.606424 0.592447 0
-0.475232 0.581596 0
-0.737616 0.603298 0
-0.606424 0.592447 0
-0.741744 0.735532 0
-0.612616 0.728298 0
-0.606424 0.592447 0
-0.475232 0.581596 0
-0.612616 0.728298 0
-0.483488 0.721064 0
-1 0.75 0
-0.870872 0.742766 0
-1 0.875 0
-0.872936 0.871383 0
-0.870872 0.742766 0
-0.741744 0.735532 0
-0.872936 0.871383 0
-0.745872 0.867766 0
-1 0.875 0
-0.872936 0.871383 0
-1 1 0
-0.875 1 0
-0.872936 0.871383 0
-0.745872 0.867766 0
-0.875 1 0
-0.75 1 0
-0.741744 0.735532 0
-0.612616 0.728298 0
-0.745872 0.867766 0
-0.618808 0.864149 0
-0.612616 0.728298 0
-0.483488 0.721064 0
-0.618808 0.864149 0
-0.491744 0.860532 0
-0.745872 0.867766 0
-0.618808 0.864149 0
-0.75 1 0
-0.625 1 0
-0.618808 0.864149 0
-0.491744 0.860532 0
-0.625 1 0
-0.5 1 0
-1 2.7528e-12 0
-0.810719 -0.0713339 0
-1 0.125 0
-0.824725 0.0678826 0
-0.810719 -0.0713339 0
-0.621437 -0.142668 0
-0.824725 0.0678826 0
-0.64945 0.0107652 0
-1 0.125 0
-0.824725 0.0678826 0
-1 0.25 0
-0.838731 0.207099 0
-0.824725 0.0678826 0
-0.64945 0.0107652 0
-0.838731 0.207099 0
-0.677463 0.164198 0
-0.621437 -0.142668 0
-0.432156 -0.214002 0
-0.64945 0.0107652 0
-0.474175 -0.0463522 0
-0.432156 -0.214002 0
-0.242875 -0.285335 0
-0.474175 -0.0463522 0
-0.2989 -0.10347 0
-0.64945 0.0107652 0
-0.474175 -0.0463522 0
-0.677463 0.164198 0
-0.516194 0.121297 0
-0.474175 -0.0463522 0
-0.2989 -0.10347 0
-0.516194 0.121297 0
-0.354925 0.0783963 0
-1 0.25 0
-0.838731 0.207099 0
-1 0.375 0
-0.852738 0.346316 0
-0.838731 0.207099 0
-0.677463 0.164198 0
-0.852738 0.346316 0
-0.705475 0.317631 0
-1 0.375 0
-0.852738 0.346316 0
-1 0.5 0
-0.866744 0.485532 0
-0.852738 0.346316 0
-0.705475 0.317631 0
-0.866744 0.485532 0
-0.733488 0.471064 0
-0.677463 0.164198 0
-0.516194 0.121297 0
-0.705475 0.317631 0
-0.558213 0.288947 0
-0.516194 0.121297 0
-0.354925 0.0783963 0
-0.558213 0.288947 0
-0.410951 0.260262 0
-0.705475 0.317631 0
-0.558213 0.288947 0
-0.733488 0.471064 0
-0.600232 0.456596 0
-0.558213 0.288947 0
-0.410951 0.260262 0
-0.600232 0.456596 0
-0.466976 0.442128 0
-0.242875 -0.285335 0
-0.182156 -0.214002 0
-0.2989 -0.10347 0
-0.227616 -0.0505397 0
-0.182156 -0.214002 0
-0.121437 -0.142668 0
-0.227616 -0.0505397 0
-0.156331 0.00239026 0
-0.2989 -0.10347 0
-0.227616 -0.0505397 0
-0.354925 0.0783963 0
-0.273075 0.112922 0
-0.227616 -0.0505397 0
-0.156331 0.00239026 0
-0.273075 0.112922 0
-0.191224 0.147448 0
-0.121437 -0.142668 0
-0.0607187 -0.0713339 0
-0.156331 0.00239026 0
-0.0850463 0.0553202 0
-0.0607187 -0.0713339 0
0 0 0
-0.0850463 0.0553202 0
-0.0137617 0.10825 0
-0.156331 0.00239026 0
-0.0850463 0.0553202 0
-0.191224 0.147448 0
-0.109374 0.181974 0
-0.0850463 0.0553202 0
-0.0137617 0.10825 0
-0.109374 0.181974 0
-0.0275233 0.2165 0
-0.354925 0.0783963 0
-0.273075 0.112922 0
-0.410951 0.260262 0
-0.318534 0.276384 0
-0.273075 0.112922 0
-0.191224 0.147448 0
-0.318534 0.276384 0
-0.226118 0.292506 0
-0.410951 0.260262 0
-0.318534 0.276384 0
-0.466976 0.442128 0
-0.363993 0.439846 0
-0.318534 0.276384 0
-0.226118 0.292506 0
-0.363993 0.439846 0
-0.261011 0.437564 0
-0.191224 0.147448 0
-0.109374 0.181974 0
-0.226118 0.292506 0
-0.133701 0.308628 0
-0.109374 0.181974 0
-0.0275233 0.2165 0
-0.133701 0.308628 0
-0.041285 0.32475 0
-0.226118 0.292506 0
-0.133701 0.308628 0
-0.261011 0.437564 0
-0.158029 0.435282 0
-0.133701 0.308628 0
-0.041285 0.32475 0
-0.158029 0.435282 0
-0.0550467 0.433 0
0.236872 -0.307713 0
0.116935 -0.302119 0
0.269594 -0.376198 0
0.156657 -0.398149 0
0.116935 -0.302119 0
-0.00300155 -0.296524 0
0.156657 -0.398149 0
0.043719 -0.4201 0
0.269594 -0.376198 0
0.156657 -0.398149 0
0.302317 -0.444683 0
0.196378 -0.494179 0
0.156657 -0.398149 0
0.043719 -0.4201 0
0.196378 -0.494179 0
0.0904396 -0.543675 0
-0.00300155 -0.296524 0
-0.122938 -0.29093 0
0.043719 -0.4201 0
-0.0692186 -0.442051 0
-0.122938 -0.29093 0
-0.242875 -0.285335 0
-0.0692186 -0.442051 0
-0.182156 -0.464002 0
0.043719 -0.4201 0
-0.0692186 -0.442051 0
0.0904396 -0.543675 0
-0.015499 -0.593172 0
-0.0692186 -0.442051 0
-0.182156 -0.464002 0
-0.015499 -0.593172 0
-0.121437 -0.642668 0
0.302317 -0.444683 0
0.196378 -0.494179 0
0.335039 -0.513168 0
0.2361 -0.59021 0
0.196378 -0.494179 0
0.0904396 -0.543675 0
0.2361 -0.59021 0
0.13716 -0.667251 0
0.335039 -0.513168 0
0.2361 -0.59021 0
0.367761 -0.581653 0
0.275821 -0.68624 0
[...]
POINT_DATA 1984
SCALARS solution_0 double 1
LOOKUP_TABLE default
-1.17873 -1.30858 -1.08711 -1.25292 -1.30858 -1.42868 -1.25292 -1.40162 -1.08711 -1.25292 -0.989246 -1.19416 -1.25292 -1.40162 -1.19416 -1.37057 -1.42868 -1.54062 -1.40162 -1.53673 -1.54062 -1.64636 -1.53673 -1.6614 -1.40162 -1.53673 -1.37057 -1.52636 -1.53673 -1.6614 -1.52636 -1.6665 -0.989246 -1.19416 -0.883805 -1.1314 -1.19416 -1.37057 -1.1314 -1.33312 -0.883805 -1.1314 -0.769041 -1.06262 -1.1314 -1.33312 -1.06262 -1.28531 -1.37057 -1.52636 -1.33312 -1.50636 -1.52636 -1.6665 -1.50636 -1.66007 -1.33312 -1.50636 -1.28531 -1.47342 -1.50636 -1.66007 -1.47342 -1.64183 -0.891082 -0.965513 -0.699717 -0.796949 -0.965513 -1.03826 -0.796949 -0.894585 -0.699717 -0.796949 -0.497499 -0.613549 -0.796949 -0.894585 -0.613549 -0.73638 -1.03826 -1.10956 -0.894585 -0.992156 -1.10956 -1.17873 -0.992156 -1.08711 -0.894585 -0.992156 -0.73638 -0.863821 -0.992156 -1.08711 -0.863821 -0.989246 -0.497499 -0.613549 -0.287787 -0.414354 -0.613549 -0.73638 -0.414354 -0.559801 -0.287787 -0.414354 -0.0754658 -0.200884 -0.414354 -0.559801 -0.200884 -0.36045 -0.73638 -0.863821 -0.559801 -0.720876 -0.863821 -0.989246 -0.720876 -0.883805 -0.559801 -0.720876 -0.36045 -0.556805 -0.720876 -0.883805 -0.556805 -0.769041 -0.891082 -1.0699 -0.965513 -1.1332 -1.0699 -1.23584 -1.1332 -1.28826 -0.965513 -1.1332 -1.03826 -1.19405 -1.1332 -1.28826 -1.19405 -1.33797 -1.23584 -1.3895 -1.28826 -1.43179 -1.3895 -1.53193 -1.43179 -1.56458 -1.28826 -1.43179 -1.33797 -1.47142 -1.43179 -1.56458 -1.47142 -1.59571 -1.03826 -1.19405 -1.10956 -1.25273 -1.19405 -1.33797 -1.25273 -1.38503 -1.10956 -1.25273 -1.17873 -1.30858 -1.25273 -1.38503 -1.30858 -1.42868 -1.33797 -1.47142 -1.38503 -1.50803 -1.47142 -1.59571 -1.50803 -1.62366 -1.38503 -1.50803 -1.42868 -1.54062 -1.50803 -1.62366 -1.54062 -1.64636 0.779791 0.80312 0.944331 0.961513 0.80312 0.819967 0.961513 0.969714 0.944331 0.961513 1.08741 1.09936 0.961513 0.969714 1.09936 1.1012 0.819967 0.823936 0.969714 0.964015 0.823936 0.806909 0.964015 0.940339 0.969714 0.964015 1.1012 1.08939 0.964015 0.940339 1.08939 1.0622 1.08741 1.09936 1.21552 1.2234 1.09936 1.1012 1.2234 1.2208 1.21552 1.2234 1.33311 1.33707 1.2234 1.2208 1.33707 1.33044 1.1012 1.08939 1.2208 1.20525 1.08939 1.0622 1.20525 1.17625 1.2208 1.20525 1.33044 1.31252 1.20525 1.17625 1.31252 1.2841 0.696491 0.720126 0.854812 0.881602 0.720126 0.741053 0.881602 0.905423 0.854812 0.881602 0.998561 1.02627 0.881602 0.905423 1.02627 1.05085 0.741053 0.760977 0.905423 0.926712 0.760977 0.779791 0.926712 0.944331 0.905423 0.926712 1.05085 1.07175 0.926712 0.944331 1.07175 1.08741 0.998561 1.02627 1.12912 1.15681 1.02627 1.05085 1.15681 1.18136 1.12912 1.15681 1.24813 1.27588 1.15681 1.18136 1.27588 1.30049 1.05085 1.07175 1.18136 1.20147 1.07175 1.08741 1.20147 1.21552 1.18136 1.20147 1.30049 1.32023 1.20147 1.21552 1.32023 1.33311 -0.0754658 -0.200884 0.133783 0.0625785 -0.200884 -0.36045 0.0625785 -0.0321444 0.133783 0.0625785 0.334589 0.307991 0.0625785 -0.0321444 0.307991 0.271328 -0.36045 -0.556805 -0.0321444 -0.157732 -0.556805 -0.769041 -0.157732 -0.336009 -0.0321444 -0.157732 0.271328 0.226936 -0.157732 -0.336009 0.226936 0.17342 0.334589 0.307991 0.522904 0.527039 0.307991 0.271328 0.527039 0.527254 0.522904 0.527039 0.696491 0.720126 0.527039 0.527254 0.720126 0.741053 0.271328 0.226936 0.527254 0.527309 0.226936 0.17342 0.527309 0.529692 0.527254 0.527309 0.741053 0.760977 0.527309 0.529692 0.760977 0.779791 -0.769041 -0.653428 -0.336009 -0.19601 -0.653428 -0.520221 -0.19601 -0.010552 -0.336009 -0.19601 0.17342 0.290866 -0.19601 -0.010552 0.290866 0.40813 -0.520221 -0.350931 -0.010552 0.241577 -0.350931 0 0.241577 0.367267 -0.010552 0.241577 0.40813 0.501186 0.241577 0.367267 0.501186 0.547532 0.17342 0.290866 0.529692 0.588829 0.290866 0.40813 0.588829 0.641972 0.529692 0.588829 0.779791 0.80312 0.588829 0.641972 0.80312 0.819967 0.40813 0.501186 0.641972 0.678375 0.501186 0.547532 0.678375 0.686333 0.641972 0.678375 0.819967 0.823936 0.678375 0.686333 0.823936 0.806909 -0.731894 -0.773279 -0.824642 -0.901464 -0.773279 -0.816426 -0.901464 -0.979096 -0.824642 -0.901464 -0.910425 -1.01724 -0.901464 -0.979096 -1.01724 -1.12219 -0.816426 -0.813534 -0.979096 -1.03503 -0.813534 -0.769041 -1.03503 -1.06262 -0.979096 -1.03503 -1.12219 -1.2131 -1.03503 -1.06262 -1.2131 -1.28531 -0.910425 -1.01724 -0.990836 -1.12426 -1.01724 -1.12219 -1.12426 -1.25314 -0.990836 -1.12426 -1.06697 -1.22476 -1.12426 -1.25314 -1.22476 -1.37566 -1.12219 -1.2131 -1.25314 -1.37039 -1.2131 -1.28531 -1.37039 -1.47342 -1.25314 -1.37039 -1.37566 -1.51563 -1.37039 -1.47342 -1.51563 -1.64183 -0.615328 -0.633178 -0.672058 -0.70088 -0.633178 -0.657967 -0.70088 -0.735914 -0.672058 -0.70088 -0.728711 -0.766918 -0.70088 -0.735914 -0.766918 -0.810246 -0.657967 -0.690691 -0.735914 -0.777284 -0.690691 -0.731894 -0.777284 -0.824642 -0.735914 -0.777284 -0.810246 -0.858316 -0.777284 -0.824642 -0.858316 -0.910425 -0.728711 -0.766918 -0.784852 -0.831109 -0.766918 -0.810246 -0.831109 -0.88129 -0.784852 -0.831109 -0.840221 -0.893429 -0.831109 -0.88129 -0.893429 -0.9494 -0.810246 -0.858316 -0.88129 -0.934788 -0.858316 -0.910425 -0.934788 -0.990836 -0.88129 -0.934788 -0.9494 -1.00747 -0.934788 -0.990836 -1.00747 -1.06697 -0.615328 -0.537504 -0.633178 -0.543707 -0.537504 -0.465224 -0.543707 -0.458959 -0.633178 -0.543707 -0.657967 -0.555831 -0.543707 -0.458959 -0.555831 -0.456333 -0.465224 -0.403272 -0.458959 -0.385593 -0.403272 -0.357041 -0.385593 -0.332004 -0.458959 -0.385593 -0.456333 -0.368377 -0.385593 -0.332004 -0.368377 -0.305275 -0.657967 -0.555831 -0.690691 -0.575555 -0.555831 -0.456333 -0.575555 -0.459134 -0.690691 -0.575555 -0.731894 -0.604666 -0.575555 -0.459134 -0.604666 -0.470025 -0.456333 -0.368377 -0.459134 -0.352348 -0.368377 -0.305275 -0.352348 -0.276426 -0.459134 -0.352348 -0.470025 -0.339013 -0.352348 -0.276426 -0.339013 -0.244801 -0.731894 -0.604666 -0.773279 -0.634695 -0.604666 -0.470025 -0.634695 -0.480007 -0.773279 -0.634695 -0.816426 -0.682043 -0.634695 -0.480007 -0.682043 -0.51679 -0.470025 -0.339013 -0.480007 -0.320059 -0.339013 -0.244801 -0.320059 -0.209308 -0.480007 -0.320059 -0.51679 -0.31508 -0.320059 -0.209308 -0.31508 -0.167844 -0.816426 -0.682043 -0.813534 -0.694308 -0.682043 -0.51679 -0.694308 -0.553205 -0.813534 -0.694308 -0.769041 -0.653428 -0.694308 -0.553205 -0.653428 -0.520221 -0.51679 -0.31508 -0.553205 -0.353579 -0.31508 -0.167844 -0.353579 -0.11508 -0.553205 -0.353579 -0.520221 -0.350931 -0.353579 -0.11508 -0.350931 0 0.463219 0.462228 0.441785 0.441915 0.462228 0.472725 0.441915 0.455015 0.441785 0.441915 0.419444 0.421107 0.441915 0.455015 0.421107 0.437541 0.472725 0.492821 0.455015 0.478859 0.492821 0.520571 0.478859 0.510991 0.455015 0.478859 0.437541 0.4659 0.478859 0.510991 0.4659 0.503039 0.419444 0.421107 0.396059 0.39972 0.421107 0.437541 0.39972 0.42038 0.396059 0.39972 0.371456 0.377704 0.39972 0.42038 0.377704 0.403721 0.437541 0.4659 0.42038 0.454169 0.4659 0.503039 0.454169 0.497021 0.42038 0.454169 0.403721 0.444036 0.454169 0.497021 0.444036 0.493362 0.541768 0.544544 0.523061 0.523005 0.544544 0.552796 0.523005 0.531316 0.523061 0.523005 0.503777 0.502587 0.523005 0.531316 0.502587 0.511196 0.552796 0.566314 0.531316 0.546286 0.566314 0.584763 0.546286 0.567001 0.531316 0.546286 0.511196 0.52763 0.546286 0.567001 0.52763 0.550541 0.503777 0.502587 0.483854 0.482483 0.502587 0.511196 0.482483 0.491804 0.483854 0.482483 0.463219 0.462228 0.482483 0.491804 0.462228 0.472725 0.511196 0.52763 0.491804 0.509903 0.52763 0.550541 0.509903 0.535113 0.491804 0.509903 0.472725 0.492821 0.509903 0.535113 0.492821 0.520571 0.584763 0.607713 0.567001 0.592041 0.607713 0.634669 0.592041 0.621379 0.567001 0.592041 0.550541 0.577587 0.592041 0.621379 0.577587 0.609184 0.634669 0.665104 0.621379 0.654318 0.665104 0.698484 0.654318 0.690204 0.621379 0.654318 0.609184 0.644473 0.654318 0.690204 0.644473 0.682691 0.550541 0.577587 0.535113 0.564228 0.577587 0.609184 0.564228 0.598108 0.535113 0.564228 0.520571 0.55194 0.564228 0.598108 0.55194 0.588242 0.609184 0.644473 0.598108 0.635738 0.644473 0.682691 0.635738 0.676249 0.598108 0.635738 0.588242 0.628313 0.635738 0.676249 0.628313 0.671182 0.520571 0.55194 0.510991 0.544168 0.55194 0.588242 0.544168 0.58132 0.510991 0.544168 0.503039 0.537733 0.544168 0.58132 0.537733 0.575409 0.588242 0.628313 0.58132 0.621379 0.628313 0.671182 0.621379 0.663498 0.58132 0.621379 0.575409 0.615145 0.621379 0.663498 0.615145 0.656246 0.503039 0.537733 0.497021 0.532859 0.537733 0.575409 0.532859 0.570675 0.497021 0.532859 0.493362 0.529845 0.532859 0.570675 0.529845 0.567329 0.575409 0.615145 0.570675 0.609737 0.615145 0.656246 0.609737 0.649519 0.570675 0.609737 0.567329 0.605303 0.609737 0.649519 0.605303 0.64342 -1.14787 -1.12642 -1.23471 -1.22907 -1.12642 -1.10562 -1.22907 -1.22545 -1.23471 -1.22907 -1.32152 -1.33169 -1.22907 -1.22545 -1.33169 -1.3446 -1.10562 -1.08573 -1.22545 -1.22405 -1.08573 -1.06697 -1.22405 -1.22476 -1.22545 -1.22405 -1.3446 -1.35972 -1.22405 -1.22476 -1.35972 -1.37566 -1.32152 -1.33169 -1.40827 -1.43398 -1.33169 -1.3446 -1.43398 -1.46187 -1.40827 -1.43398 -1.49579 -1.53668 -1.43398 -1.46187 -1.53668 -1.57695 -1.3446 -1.35972 -1.46187 -1.49013 -1.35972 -1.37566 -1.49013 -1.51563 -1.46187 -1.49013 -1.57695 -1.61318 -1.49013 -1.51563 -1.61318 -1.64183 -1.12991 -1.1332 -1.18973 -1.19923 -1.1332 -1.13653 -1.19923 -1.20892 -1.18973 -1.19923 -1.2492 -1.26487 -1.19923 -1.20892 -1.26487 -1.28097 -1.13653 -1.14112 -1.20892 -1.22039 -1.14112 -1.14787 -1.22039 -1.23471 -1.20892 -1.22039 -1.28097 -1.29952 -1.22039 -1.23471 -1.29952 -1.32152 -1.2492 -1.26487 -1.30814 -1.3295 -1.26487 -1.28097 -1.3295 -1.35216 -1.30814 -1.3295 -1.36642 -1.39171 -1.3295 -1.35216 -1.39171 -1.42199 -1.28097 -1.29952 -1.35216 -1.37827 -1.29952 -1.32152 -1.37827 -1.40827 -1.35216 -1.37827 -1.42199 -1.45698 -1.37827 -1.40827 -1.45698 -1.49579 -0.89252 -0.885705 -0.950909 -0.946427 -0.885705 -0.87934 -0.946427 -0.942337 -0.950909 -0.946427 -1.01019 -1.00821 -0.946427 -0.942337 -1.00821 -1.00654 -0.87934 -0.873784 -0.942337 -0.939174 -0.873784 -0.869335 -0.939174 -0.937376 -0.942337 -0.939174 -1.00654 -1.00591 -0.939174 -0.937376 -1.00591 -1.00691 -1.01019 -1.00821 -1.06998 -1.0706 -1.00821 -1.00654 -1.0706 -1.07142 -1.06998 -1.0706 -1.12991 -1.1332 -1.0706 -1.07142 -1.1332 -1.13653 -1.00654 -1.00591 -1.07142 -1.07339 -1.00591 -1.00691 -1.07339 -1.07725 -1.07142 -1.07339 -1.13653 -1.14112 -1.07339 -1.07725 -1.14112 -1.14787 -0.869335 -0.861142 -0.937376 -0.925479 -0.861142 -0.853487 -0.925479 -0.914095 -0.937376 -0.925479 -1.00691 -0.991561 -0.925479 -0.914095 -0.991561 -0.976739 -0.853487 -0.846475 -0.914095 -0.903362 -0.846475 -0.840221 -0.903362 -0.893429 -0.914095 -0.903362 -0.976739 -0.962625 -0.903362 -0.893429 -0.962625 -0.9494 -1.00691 -0.991561 -1.07725 -1.05872 -0.991561 -0.976739 -1.05872 -1.04077 -1.07725 -1.05872 -1.14787 -1.12642 -1.05872 -1.04077 -1.12642 -1.10562 -0.976739 -0.962625 -1.04077 -1.02362 -0.962625 -0.9494 -1.02362 -1.00747 -1.04077 -1.02362 -1.10562 -1.08573 -1.02362 -1.00747 -1.08573 -1.06697 0.254684 0.29442 0.217758 0.281256 0.29442 0.382939 0.281256 0.40169 0.217758 0.281256 0.174621 0.283336 0.281256 0.40169 0.283336 0.439468 0.382939 0.481982 0.40169 0.521224 0.481982 0.578943 0.521224 0.63121 0.40169 0.521224 0.439468 0.574853 0.521224 0.63121 0.574853 0.692754 0.174621 0.283336 0.119726 0.318232 0.283336 0.439468 0.318232 0.495029 0.119726 0.318232 0 0.367267 0.318232 0.495029 0.367267 0.547532 0.439468 0.574853 0.495029 0.635124 0.574853 0.692754 0.635124 0.754878 0.495029 0.635124 0.547532 0.686333 0.635124 0.754878 0.686333 0.806909 0.371456 0.377704 0.345408 0.355777 0.377704 0.403721 0.355777 0.39152 0.345408 0.355777 0.3176 0.33401 0.355777 0.39152 0.33401 0.382757 0.403721 0.444036 0.39152 0.443502 0.444036 0.493362 0.443502 0.504096 0.39152 0.443502 0.382757 0.448679 0.443502 0.504096 0.448679 0.521472 0.3176 0.33401 0.287586 0.313089 0.33401 0.382757 0.313089 0.379108 0.287586 0.313089 0.254684 0.29442 0.313089 0.379108 0.29442 0.382939 0.382757 0.448679 0.379108 0.461008 0.448679 0.521472 0.461008 0.546264 0.379108 0.461008 0.382939 0.481982 0.461008 0.546264 0.481982 0.578943 0.493362 0.529845 0.504096 0.548854 0.529845 0.567329 0.548854 0.593536 0.504096 0.548854 0.521472 0.573984 0.548854 0.593536 0.573984 0.625064 0.567329 0.605303 0.593536 0.637759 0.605303 0.64342 0.637759 0.681314 0.593536 0.637759 0.625064 0.674631 0.637759 0.681314 0.674631 0.722721 0.521472 0.573984 0.546264 0.605362 0.573984 0.625064 0.605362 0.661637 0.546264 0.605362 0.578943 0.642811 0.605362 0.661637 0.642811 0.702767 0.625064 0.674631 0.661637 0.715431 0.674631 0.722721 0.715431 0.767064 0.661637 0.715431 0.702767 0.759555 0.715431 0.767064 0.759555 0.813749 0.578943 0.642811 0.63121 0.715209 0.642811 0.702767 0.715209 0.792936 0.63121 0.715209 0.692754 0.794208 0.715209 0.792936 0.794208 0.887476 0.702767 0.759555 0.792936 0.865889 0.759555 0.813749 0.865889 0.935176 0.792936 0.865889 0.887476 0.974823 0.865889 0.935176 0.974823 1.05789 0.692754 0.794208 0.754878 0.871652 0.794208 0.887476 0.871652 0.978977 0.754878 0.871652 0.806909 0.940339 0.871652 0.978977 0.940339 1.0622 0.887476 0.974823 0.978977 1.07968 0.974823 1.05789 1.07968 1.17591 0.978977 1.07968 1.0622 1.17625 1.07968 1.17591 1.17625 1.2841 -0.677977 -0.631932 -0.662733 -0.61412 -0.631932 -0.590067 -0.61412 -0.570299 -0.662733 -0.61412 -0.648837 -0.59785 -0.61412 -0.570299 -0.59785 -0.552195 -0.590067 -0.552873 -0.570299 -0.53243 -0.552873 -0.520744 -0.53243 -0.502763 -0.570299 -0.53243 -0.552195 -0.513497 -0.53243 -0.502763 -0.513497 -0.484227 -0.648837 -0.59785 -0.636083 -0.582691 -0.59785 -0.552195 -0.582691 -0.535043 -0.636083 -0.582691 -0.624334 -0.568346 -0.582691 -0.535043 -0.568346 -0.518381 -0.552195 -0.513497 -0.535043 -0.495062 -0.513497 -0.484227 -0.495062 -0.465077 -0.535043 -0.495062 -0.518381 -0.476595 -0.495062 -0.465077 -0.476595 -0.445243 -0.624334 -0.568346 -0.6193 -0.558699 -0.568346 -0.518381 -0.558699 -0.504345 -0.6193 -0.558699 -0.615927 -0.550185 -0.558699 -0.504345 -0.550185 -0.490735 -0.518381 -0.476595 -0.504345 -0.458811 -0.476595 -0.445243 -0.458811 -0.424641 -0.504345 -0.458811 -0.490735 -0.440695 -0.458811 -0.424641 -0.440695 -0.403167 -0.615927 -0.550185 -0.614478 -0.543008 -0.550185 -0.490735 -0.543008 -0.477629 -0.614478 -0.543008 -0.615328 -0.537504 -0.543008 -0.477629 -0.537504 -0.465224 -0.490735 -0.440695 -0.477629 -0.422187 -0.440695 -0.403167 -0.422187 -0.380689 -0.477629 -0.422187 -0.465224 -0.403272 -0.422187 -0.380689 -0.403272 -0.357041 -0.624334 -0.6193 -0.681905 -0.677134 -0.6193 -0.615927 -0.677134 -0.673756 -0.681905 -0.677134 -0.742611 -0.737328 -0.677134 -0.673756 -0.737328 -0.733136 -0.615927 -0.614478 -0.673756 -0.671973 -0.614478 -0.615328 -0.671973 -0.672058 -0.673756 -0.671973 -0.733136 -0.730196 -0.671973 -0.672058 -0.730196 -0.728711 -0.742611 -0.737328 -0.805369 -0.798905 -0.737328 -0.733136 -0.798905 -0.793241 -0.805369 -0.798905 -0.869335 -0.861142 -0.798905 -0.793241 -0.861142 -0.853487 -0.733136 -0.730196 -0.793241 -0.788506 -0.730196 -0.728711 -0.788506 -0.784852 -0.793241 -0.788506 -0.853487 -0.846475 -0.788506 -0.784852 -0.846475 -0.840221 -0.677977 -0.662733 -0.727644 -0.714534 -0.662733 -0.648837 -0.714534 -0.702557 -0.727644 -0.714534 -0.780345 -0.769437 -0.714534 -0.702557 -0.769437 -0.759432 -0.648837 -0.636083 -0.702557 -0.691681 -0.636083 -0.624334 -0.691681 -0.681905 -0.702557 -0.691681 -0.759432 -0.750452 -0.691681 -0.681905 -0.750452 -0.742611 -0.780345 -0.769437 -0.835492 -0.826709 -0.769437 -0.759432 -0.826709 -0.8186 -0.835492 -0.826709 -0.89252 -0.885705 -0.826709 -0.8186 -0.885705 -0.87934 -0.759432 -0.750452 -0.8186 -0.811416 -0.750452 -0.742611 -0.811416 -0.805369 -0.8186 -0.811416 -0.87934 -0.873784 -0.811416 -0.805369 -0.873784 -0.869335 0.851725 0.892922 0.853279 0.899234 0.892922 0.934634 0.899234 0.945719 0.853279 0.899234 0.855062 0.905902 0.899234 0.945719 0.905902 0.957437 0.934634 0.976625 0.945719 0.99195 0.976625 1.0187 0.99195 1.03627 0.945719 0.99195 0.957437 1.00895 0.99195 1.03627 1.00895 1.05968 0.855062 0.905902 0.858334 0.914689 0.905902 0.957437 0.914689 0.972134 0.858334 0.914689 0.864104 0.926843 0.914689 0.972134 0.926843 0.991114 0.957437 1.00895 0.972134 1.03027 1.00895 1.05968 1.03027 1.08917 0.972134 1.03027 0.991114 1.05676 1.03027 1.08917 1.05676 1.1244 0.864104 0.926843 0.849987 0.924946 0.926843 0.991114 0.924946 1.00242 0.849987 0.924946 0.836691 0.925455 0.924946 1.00242 0.925455 1.01744 0.991114 1.05676 1.00242 1.08196 1.05676 1.1244 1.08196 1.16418 1.00242 1.08196 1.01744 1.11122 1.08196 1.16418 1.11122 1.2063 0.836691 0.925455 0.824508 0.928776 0.925455 1.01744 0.928776 1.03617 0.824508 0.928776 0.813749 0.935176 0.928776 1.03617 0.935176 1.05789 1.01744 1.11122 1.03617 1.14337 1.11122 1.2063 1.14337 1.24753 1.03617 1.14337 1.05789 1.17591 1.14337 1.24753 1.17591 1.2841 0.671182 0.716283 0.663498 0.706714 0.716283 0.763908 0.706714 0.75262 0.663498 0.706714 0.656246 0.697607 0.706714 0.75262 0.697607 0.741873 0.763908 0.81337 0.75262 0.800562 0.81337 0.864104 0.800562 0.849987 0.75262 0.800562 0.741873 0.788418 0.800562 0.849987 0.788418 0.836691 0.656246 0.697607 0.649519 0.689092 0.697607 0.741873 0.689092 0.731842 0.649519 0.689092 0.64342 0.681314 0.689092 0.731842 0.681314 0.722721 0.741873 0.788418 0.731842 0.77717 0.788418 0.836691 0.77717 0.824508 0.731842 0.77717 0.722721 0.767064 0.77717 0.824508 0.767064 0.813749 0.698484 0.734294 0.690204 0.728283 0.734294 0.772052 0.728283 0.768478 0.690204 0.728283 0.682691 0.722955 0.728283 0.768478 0.722955 0.765468 0.772052 0.811324 0.768478 0.81029 0.811324 0.851725 0.81029 0.853279 0.768478 0.81029 0.765468 0.809668 0.81029 0.853279 0.809668 0.855062 0.682691 0.722955 0.676249 0.7188 0.722955 0.765468 0.7188 0.763731 0.676249 0.7188 0.671182 0.716283 0.7188 0.763731 0.716283 0.763908 0.765468 0.809668 0.763731 0.810419 0.809668 0.855062 0.810419 0.858334 0.763731 0.810419 0.763908 0.81337 0.810419 0.858334 0.81337 0.864104 
SCALARS solution_1 double 1
LOOKUP_TABLE default