# vtk DataFile Version 3.0
#This file was generated by the deal.II library on 2020/5/26 at 23:29:11
ASCII
DATASET UNSTRUCTURED_GRID

POINTS 1960 double
0.5625 0 0
0.625 0 0
0.5625 0.0625 0
0.625 0.0625 0
0.625 0 0
0.6875 0 0
0.625 0.0625 0
0.6875 0.0625 0
0.6875 0 0
0.75 0 0
0.6875 0.0625 0
0.75 0.0625 0
0.75 0 0
0.8125 0 0
0.75 0.0625 0
0.8125 0.0625 0
0.8125 0 0
0.875 0 0
0.8125 0.0625 0
0.875 0.0625 0
0.875 0 0
0.9375 0 0
0.875 0.0625 0
0.9375 0.0625 0
0.9375 0 0
1 0 0
0.9375 0.0625 0
1 0.0625 0
0.625 0.0625 0
0.6875 0.0625 0
0.625 0.125 0
0.6875 0.125 0
0.6875 0.0625 0
0.75 0.0625 0
0.6875 0.125 0
0.75 0.125 0
0.75 0.0625 0
0.8125 0.0625 0
0.75 0.125 0
0.8125 0.125 0
0.8125 0.0625 0
0.875 0.0625 0
0.8125 0.125 0
0.875 0.125 0
0.875 0.0625 0
0.9375 0.0625 0
0.875 0.125 0
0.9375 0.125 0
0.9375 0.0625 0
1 0.0625 0
0.9375 0.125 0
1 0.125 0
0.625 0.125 0
0.6875 0.125 0
0.625 0.1875 0
0.6875 0.1875 0
0.6875 0.125 0
0.75 0.125 0
0.6875 0.1875 0
0.75 0.1875 0
0.75 0.125 0
0.8125 0.125 0
0.75 0.1875 0
0.8125 0.1875 0
0.8125 0.125 0
0.875 0.125 0
0.8125 0.1875 0
0.875 0.1875 0
0.875 0.125 0
0.9375 0.125 0
0.875 0.1875 0
0.9375 0.1875 0
0.9375 0.125 0
1 0.125 0
0.9375 0.1875 0
1 0.1875 0
0.5625 0.1875 0
0.625 0.1875 0
0.5625 0.25 0
0.625 0.25 0
0.625 0.1875 0
0.6875 0.1875 0
0.625 0.25 0
0.6875 0.25 0
0.6875 0.1875 0
0.75 0.1875 0
0.6875 0.25 0
0.75 0.25 0
0.75 0.1875 0
0.8125 0.1875 0
0.75 0.25 0
0.8125 0.25 0
0.8125 0.1875 0
0.875 0.1875 0
0.8125 0.25 0
0.875 0.25 0
0.875 0.1875 0
0.9375 0.1875 0
0.875 0.25 0
0.9375 0.25 0
0.9375 0.1875 0
1 0.1875 0
0.9375 0.25 0
1 0.25 0
0.5625 0.25 0
0.625 0.25 0
0.5625 0.3125 0
0.625 0.3125 0
0.625 0.25 0
0.6875 0.25 0
0.625 0.3125 0
0.6875 0.3125 0
0.6875 0.25 0
0.75 0.25 0
0.6875 0.3125 0
0.75 0.3125 0
0.75 0.25 0
0.8125 0.25 0
0.75 0.3125 0
0.8125 0.3125 0
0.8125 0.25 0
0.875 0.25 0
0.8125 0.3125 0
0.875 0.3125 0
0.875 0.25 0
0.9375 0.25 0
0.875 0.3125 0
0.9375 0.3125 0
0.9375 0.25 0
1 0.25 0
0.9375 0.3125 0
1 0.3125 0
0.5 0.3125 0
0.5625 0.3125 0
0.5 0.375 0
0.5625 0.375 0
0.5625 0.3125 0
0.625 0.3125 0
0.5625 0.375 0
0.625 0.375 0
0.625 0.3125 0
0.6875 0.3125 0
0.625 0.375 0
0.6875 0.375 0
0.6875 0.3125 0
0.75 0.3125 0
0.6875 0.375 0
0.75 0.375 0
0.75 0.3125 0
0.8125 0.3125 0
0.75 0.375 0
0.8125 0.375 0
0.8125 0.3125 0
0.875 0.3125 0
0.8125 0.375 0
0.875 0.375 0
0.875 0.3125 0
0.9375 0.3125 0
0.875 0.375 0
0.9375 0.375 0
0.9375 0.3125 0
1 0.3125 0
0.9375 0.375 0
1 0.375 0
0.5 0.375 0
0.5625 0.375 0
0.5 0.4375 0
0.5625 0.4375 0
0.5625 0.375 0
0.625 0.375 0
0.5625 0.4375 0
0.625 0.4375 0
0.625 0.375 0
0.6875 0.375 0
0.625 0.4375 0
0.6875 0.4375 0
0.6875 0.375 0
0.75 0.375 0
0.6875 0.4375 0
0.75 0.4375 0
0.75 0.375 0
0.8125 0.375 0
0.75 0.4375 0
0.8125 0.4375 0
0.8125 0.375 0
0.875 0.375 0
0.8125 0.4375 0
0.875 0.4375 0
0.875 0.375 0
0.9375 0.375 0
0.875 0.4375 0
0.9375 0.4375 0
0.9375 0.375 0
1 0.375 0
0.9375 0.4375 0
1 0.4375 0
0.5 0.4375 0
0.5625 0.4375 0
0.5 0.5 0
0.5625 0.5 0
0.5625 0.4375 0
0.625 0.4375 0
0.5625 0.5 0
0.625 0.5 0
0.625 0.4375 0
0.6875 0.4375 0
0.625 0.5 0
0.6875 0.5 0
0.6875 0.4375 0
0.75 0.4375 0
0.6875 0.5 0
0.75 0.5 0
0.75 0.4375 0
0.8125 0.4375 0
0.75 0.5 0
0.8125 0.5 0
0.8125 0.4375 0
0.875 0.4375 0
0.8125 0.5 0
0.875 0.5 0
0.875 0.4375 0
0.9375 0.4375 0
0.875 0.5 0
0.9375 0.5 0
0.9375 0.4375 0
1 0.4375 0
0.9375 0.5 0
1 0.5 0
0.3125 0.5 0
0.375 0.5 0
0.3125 0.5625 0
0.375 0.5625 0
0.375 0.5 0
0.4375 0.5 0
0.375 0.5625 0
0.4375 0.5625 0
0.4375 0.5 0
0.5 0.5 0
0.4375 0.5625 0
0.5 0.5625 0
0.5 0.5 0
0.5625 0.5 0
0.5 0.5625 0
0.5625 0.5625 0
0.5625 0.5 0
0.625 0.5 0
0.5625 0.5625 0
0.625 0.5625 0
0.625 0.5 0
0.6875 0.5 0
0.625 0.5625 0
0.6875 0.5625 0
0.6875 0.5 0
0.75 0.5 0
0.6875 0.5625 0
0.75 0.5625 0
0.75 0.5 0
0.8125 0.5 0
0.75 0.5625 0
0.8125 0.5625 0
0.8125 0.5 0
0.875 0.5 0
0.8125 0.5625 0
0.875 0.5625 0
0.875 0.5 0
0.9375 0.5 0
0.875 0.5625 0
0.9375 0.5625 0
0.9375 0.5 0
1 0.5 0
0.9375 0.5625 0
1 0.5625 0
0 0.5625 0
0.0625 0.5625 0
0 0.625 0
0.0625 0.625 0
0.1875 0.5625 0
0.25 0.5625 0
0.1875 0.625 0
0.25 0.625 0
0.25 0.5625 0
0.3125 0.5625 0
0.25 0.625 0
0.3125 0.625 0
0.3125 0.5625 0
0.375 0.5625 0
0.3125 0.625 0
0.375 0.625 0
0.375 0.5625 0
0.4375 0.5625 0
0.375 0.625 0
0.4375 0.625 0
0.4375 0.5625 0
0.5 0.5625 0
0.4375 0.625 0
0.5 0.625 0
0.5 0.5625 0
0.5625 0.5625 0
0.5 0.625 0
0.5625 0.625 0
0.5625 0.5625 0
0.625 0.5625 0
0.5625 0.625 0
0.625 0.625 0
0.625 0.5625 0
0.6875 0.5625 0
0.625 0.625 0
0.6875 0.625 0
0.6875 0.5625 0
0.75 0.5625 0
0.6875 0.625 0
0.75 0.625 0
0.75 0.5625 0
0.8125 0.5625 0
0.75 0.625 0
0.8125 0.625 0
0.8125 0.5625 0
0.875 0.5625 0
0.8125 0.625 0
0.875 0.625 0
0.875 0.5625 0
0.9375 0.5625 0
0.875 0.625 0
0.9375 0.625 0
0.9375 0.5625 0
1 0.5625 0
0.9375 0.625 0
1 0.625 0
0 0.625 0
0.0625 0.625 0
0 0.6875 0
0.0625 0.6875 0
0.0625 0.625 0
0.125 0.625 0
0.0625 0.6875 0
0.125 0.6875 0
0.125 0.625 0
0.1875 0.625 0
0.125 0.6875 0
0.1875 0.6875 0
0.1875 0.625 0
0.25 0.625 0
0.1875 0.6875 0
0.25 0.6875 0
0.25 0.625 0
0.3125 0.625 0
0.25 0.6875 0
0.3125 0.6875 0
0.3125 0.625 0
0.375 0.625 0
0.3125 0.6875 0
0.375 0.6875 0
0.375 0.625 0
0.4375 0.625 0
0.375 0.6875 0
0.4375 0.6875 0
0.4375 0.625 0
0.5 0.625 0
0.4375 0.6875 0
0.5 0.6875 0
0.5 0.625 0
0.5625 0.625 0
0.5 0.6875 0
0.5625 0.6875 0
0.5625 0.625 0
0.625 0.625 0
0.5625 0.6875 0
0.625 0.6875 0
0.625 0.625 0
0.6875 0.625 0
0.625 0.6875 0
0.6875 0.6875 0
0.6875 0.625 0
0.75 0.625 0
0.6875 0.6875 0
0.75 0.6875 0
0.75 0.625 0
0.8125 0.625 0
0.75 0.6875 0
0.8125 0.6875 0
0.8125 0.625 0
0.875 0.625 0
0.8125 0.6875 0
0.875 0.6875 0
0.875 0.625 0
0.9375 0.625 0
0.875 0.6875 0
0.9375 0.6875 0
0.9375 0.625 0
1 0.625 0
0.9375 0.6875 0
1 0.6875 0
0 0.6875 0
0.0625 0.6875 0
0 0.75 0
0.0625 0.75 0
0.0625 0.6875 0
0.125 0.6875 0
0.0625 0.75 0
0.125 0.75 0
0.125 0.6875 0
0.1875 0.6875 0
0.125 0.75 0
0.1875 0.75 0
0.1875 0.6875 0
0.25 0.6875 0
0.1875 0.75 0
0.25 0.75 0
0.25 0.6875 0
0.3125 0.6875 0
0.25 0.75 0
0.3125 0.75 0
0.3125 0.6875 0
0.375 0.6875 0
0.3125 0.75 0
0.375 0.75 0
0.375 0.6875 0
0.4375 0.6875 0
0.375 0.75 0
0.4375 0.75 0
0.4375 0.6875 0
0.5 0.6875 0
0.4375 0.75 0
0.5 0.75 0
0.5 0.6875 0
0.5625 0.6875 0
0.5 0.75 0
0.5625 0.75 0
0.5625 0.6875 0
0.625 0.6875 0
0.5625 0.75 0
0.625 0.75 0
0.625 0.6875 0
0.6875 0.6875 0
0.625 0.75 0
0.6875 0.75 0
0.6875 0.6875 0
0.75 0.6875 0
0.6875 0.75 0
0.75 0.75 0
0.75 0.6875 0
0.8125 0.6875 0
0.75 0.75 0
0.8125 0.75 0
0.8125 0.6875 0
0.875 0.6875 0
0.8125 0.75 0
0.875 0.75 0
0.875 0.6875 0
0.9375 0.6875 0
0.875 0.75 0
0.9375 0.75 0
0.9375 0.6875 0
1 0.6875 0
0.9375 0.75 0
1 0.75 0
0 0.75 0
0.0625 0.75 0
0 0.8125 0
0.0625 0.8125 0
0.0625 0.75 0
0.125 0.75 0
0.0625 0.8125 0
0.125 0.8125 0
0.125 0.75 0
0.1875 0.75 0
0.125 0.8125 0
0.1875 0.8125 0
0.1875 0.75 0
0.25 0.75 0
0.1875 0.8125 0
0.25 0.8125 0
0.25 0.75 0
0.3125 0.75 0
0.25 0.8125 0
0.3125 0.8125 0
0.3125 0.75 0
0.375 0.75 0
0.3125 0.8125 0
0.375 0.8125 0
0.375 0.75 0
0.4375 0.75 0
0.375 0.8125 0
0.4375 0.8125 0
0.4375 0.75 0
0.5 0.75 0
0.4375 0.8125 0
0.5 0.8125 0
0.5 0.75 0
0.5625 0.75 0
0.5 0.8125 0
0.5625 0.8125 0
0.5625 0.75 0
0.625 0.75 0
0.5625 0.8125 0
0.625 0.8125 0
0.625 0.75 0
0.6875 0.75 0
0.625 0.8125 0
0.6875 0.8125 0
0.6875 0.75 0
0.75 0.75 0
0.6875 0.8125 0
0.75 0.8125 0
0.75 0.75 0
0.8125 0.75 0
0.75 0.8125 0
0.8125 0.8125 0
0.8125 0.75 0
0.875 0.75 0
0.8125 0.8125 0
0.875 0.8125 0
0.875 0.75 0
0.9375 0.75 0
0.875 0.8125 0
0.9375 0.8125 0
0.9375 0.75 0
1 0.75 0
0.9375 0.8125 0
1 0.8125 0
0 0.8125 0
0.0625 0.8125 0
0 0.875 0
0.0625 0.875 0
0.0625 0.8125 0
0.125 0.8125 0
0.0625 0.875 0
0.125 0.875 0
0.125 0.8125 0
0.1875 0.8125 0
0.125 0.875 0
0.1875 0.875 0
0.1875 0.8125 0
0.25 0.8125 0
0.1875 0.875 0
0.25 0.875 0
0.25 0.8125 0
0.3125 0.8125 0
0.25 0.875 0
0.3125 0.875 0
0.3125 0.8125 0
0.375 0.8125 0
0.3125 0.875 0
0.375 0.875 0
0.375 0.8125 0
0.4375 0.8125 0
0.375 0.875 0
0.4375 0.875 0
0.4375 0.8125 0
0.5 0.8125 0
0.4375 0.875 0
0.5 0.875 0
0.5 0.8125 0
0.5625 0.8125 0
0.5 0.875 0
0.5625 0.875 0
0.5625 0.8125 0
0.625 0.8125 0
0.5625 0.875 0
0.625 0.875 0
0.625 0.8125 0
0.6875 0.8125 0
0.625 0.875 0
0.6875 0.875 0
0.6875 0.8125 0
0.75 0.8125 0
0.6875 0.875 0
0.75 0.875 0
0.75 0.8125 0
0.8125 0.8125 0
0.75 0.875 0
0.8125 0.875 0
0.8125 0.8125 0
0.875 0.8125 0
0.8125 0.875 0
0.875 0.875 0
0.875 0.8125 0
0.9375 0.8125 0
0.875 0.875 0
0.9375 0.875 0
0.9375 0.8125 0
1 0.8125 0
0.9375 0.875 0
1 0.875 0
0 0.875 0
0.0625 0.875 0
0 0.9375 0
0.0625 0.9375 0
0.0625 0.875 0
0.125 0.875 0
0.0625 0.9375 0
0.125 0.9375 0
0.125 0.875 0
0.1875 0.875 0
0.125 0.9375 0
0.1875 0.9375 0
0.1875 0.875 0
0.25 0.875 0
0.1875 0.9375 0
0.25 0.9375 0
0.25 0.875 0
0.3125 0.875 0
0.25 0.9375 0
0.3125 0.9375 0
0.3125 0.875 0
0.375 0.875 0
0.3125 0.9375 0
0.375 0.9375 0
0.375 0.875 0
0.4375 0.875 0
0.375 0.9375 0
0.4375 0.9375 0
0.4375 0.875 0
0.5 0.875 0
0.4375 0.9375 0
0.5 0.9375 0
0.5 0.875 0
0.5625 0.875 0
0.5 0.9375 0
0.5625 0.9375 0
0.5625 0.875 0
0.625 0.875 0
0.5625 0.9375 0
0.625 0.9375 0
0.625 0.875 0
0.6875 0.875 0
0.625 0.9375 0
0.6875 0.9375 0
0.6875 0.875 0
0.75 0.875 0
0.6875 0.9375 0
0.75 0.9375 0
0.75 0.875 0
0.8125 0.875 0
0.75 0.9375 0
0.8125 0.9375 0
0.8125 0.875 0
0.875 0.875 0
0.8125 0.9375 0
0.875 0.9375 0
0.875 0.875 0
0.9375 0.875 0
0.875 0.9375 0
0.9375 0.9375 0
0.9375 0.875 0
1 0.875 0
0.9375 0.9375 0
1 0.9375 0
0 0.9375 0
0.0625 0.9375 0
0 1 0
0.0625 1 0
0.0625 0.9375 0
0.125 0.9375 0
0.0625 1 0
0.125 1 0
0.125 0.9375 0
0.1875 0.9375 0
0.125 1 0
0.1875 1 0
0.1875 0.9375 0
0.25 0.9375 0
0.1875 1 0
0.25 1 0
0.25 0.9375 0
0.3125 0.9375 0
0.25 1 0
0.3125 1 0
0.3125 0.9375 0
0.375 0.9375 0
0.3125 1 0
0.375 1 0
0.375 0.9375 0
0.4375 0.9375 0
0.375 1 0
0.4375 1 0
0.4375 0.9375 0
0.5 0.9375 0
0.4375 1 0
0.5 1 0
0.5 0.9375 0
0.5625 0.9375 0
0.5 1 0
0.5625 1 0
0.5625 0.9375 0
0.625 0.9375 0
0.5625 1 0
0.625 1 0
0.625 0.9375 0
0.6875 0.9375 0
0.625 1 0
0.6875 1 0
0.6875 0.9375 0
0.75 0.9375 0
0.6875 1 0
0.75 1 0
0.75 0.9375 0
0.8125 0.9375 0
0.75 1 0
0.8125 1 0
0.8125 0.9375 0
[...]
POINT_DATA 1960
SCALARS solution double 1
LOOKUP_TABLE default
0.99376 0.998832 1.06959 1.05289 0.998832 0.983733 1.05289 1.02232 0.983733 0.957743 1.02232 0.984855 0.957743 0.926262 0.984855 0.944495 0.926262 0.892447 0.944495 0.903453 0.892447 0.858142 0.903453 0.862898 0.858142 0.824405 0.862898 0.823369 1.05289 1.02232 1.09965 1.05476 1.02232 0.984855 1.05476 1.00686 0.984855 0.944495 1.00686 0.958525 0.944495 0.903453 0.958525 0.911043 0.903453 0.862898 0.911043 0.864942 0.862898 0.823369 0.864942 0.820278 1.09965 1.05476 1.1336 1.0776 1.05476 1.00686 1.0776 1.02157 1.00686 0.958525 1.02157 0.966991 0.958525 0.911043 0.966991 0.914438 0.911043 0.864942 0.914438 0.863943 0.864942 0.820278 0.863943 0.815189 1.18655 1.1336 1.21436 1.15173 1.1336 1.0776 1.15173 1.08882 1.0776 1.02157 1.08882 1.02765 1.02157 0.966991 1.02765 0.969053 0.966991 0.914438 0.969053 0.913168 0.914438 0.863943 0.913168 0.859729 0.863943 0.815189 0.859729 0.808195 1.21436 1.15173 1.21988 1.15353 1.15173 1.08882 1.15353 1.08796 1.08882 1.02765 1.08796 1.02475 1.02765 0.969053 1.02475 0.964479 0.969053 0.913168 0.964479 0.907126 0.913168 0.859729 0.907126 0.852313 0.859729 0.808195 0.852313 0.799424 1.28374 1.21988 1.26913 1.206 1.21988 1.15353 1.206 1.14061 1.15353 1.08796 1.14061 1.07592 1.08796 1.02475 1.07592 1.01339 1.02475 0.964479 1.01339 0.953598 0.964479 0.907126 0.953598 0.89654 0.907126 0.852313 0.89654 0.841875 0.852313 0.799424 0.841875 0.789031 1.26913 1.206 1.23576 1.17709 1.206 1.14061 1.17709 1.11575 1.14061 1.07592 1.11575 1.05447 1.07592 1.01339 1.05447 0.994717 1.01339 0.953598 0.994717 0.937157 0.953598 0.89654 0.937157 0.881904 0.89654 0.841875 0.881904 0.828735 0.841875 0.789031 0.828735 0.777196 1.23576 1.17709 1.19019 1.13772 1.17709 1.11575 1.13772 1.08208 1.11575 1.05447 1.08208 1.02575 1.05447 0.994717 1.02575 0.970184 0.994717 0.937157 0.970184 0.916143 0.937157 0.881904 0.916143 0.863874 0.881904 0.828735 0.863874 0.813299 0.828735 0.777196 0.813299 0.764114 1.28374 1.26913 1.21988 1.206 1.26913 1.23576 1.206 1.17709 1.23576 1.19019 1.17709 1.13772 1.19019 1.13772 1.13772 1.09184 1.13772 1.08208 1.09184 1.0425 1.08208 1.02575 1.0425 0.991863 1.02575 0.970184 0.991863 0.941303 0.970184 0.916143 0.941303 0.891618 0.916143 0.863874 0.891618 0.843168 0.863874 0.813299 0.843168 0.796011 0.813299 0.764114 0.796011 0.749991 0.99376 1.06959 0.998832 1.05289 1.18655 1.21436 1.1336 1.15173 1.21436 1.21988 1.15173 1.15353 1.21988 1.206 1.15353 1.14061 1.206 1.17709 1.14061 1.11575 1.17709 1.13772 1.11575 1.08208 1.13772 1.09184 1.08208 1.0425 1.09184 1.0425 1.0425 0.999431 1.0425 0.991863 0.999431 0.954664 0.991863 0.941303 0.954664 0.909453 0.941303 0.891618 0.909453 0.864585 0.891618 0.843168 0.864585 0.820484 0.843168 0.796011 0.820484 0.777308 0.796011 0.749991 0.777308 0.73503 0.998832 1.05289 0.983733 1.02232 1.05289 1.09965 1.02232 1.05476 1.09965 1.1336 1.05476 1.0776 1.1336 1.15173 1.0776 1.08882 1.15173 1.15353 1.08882 1.08796 1.15353 1.14061 1.08796 1.07592 1.14061 1.11575 1.07592 1.05447 1.11575 1.08208 1.05447 1.02575 1.08208 1.0425 1.02575 0.991863 1.0425 0.999431 0.991863 0.954664 0.999431 0.954664 0.954664 0.915612 0.954664 0.909453 0.915612 0.875787 0.909453 0.864585 0.875787 0.835917 0.864585 0.820484 0.835917 0.796446 0.820484 0.777308 0.796446 0.757595 0.777308 0.73503 0.757595 0.719429 0.983733 1.02232 0.957743 0.984855 1.02232 1.05476 0.984855 1.00686 1.05476 1.0776 1.00686 1.02157 1.0776 1.08882 1.02157 1.02765 1.08882 1.08796 1.02765 1.02475 1.08796 1.07592 1.02475 1.01339 1.07592 1.05447 1.01339 0.994717 1.05447 1.02575 0.994717 0.970184 1.02575 0.991863 0.970184 0.941303 0.991863 0.954664 0.941303 0.909453 0.954664 0.915612 0.909453 0.875787 0.915612 0.875787 0.875787 0.841195 0.875787 0.835917 0.841195 0.806318 0.835917 0.796446 0.806318 0.771577 0.796446 0.757595 0.771577 0.737222 0.757595 0.719429 0.737222 0.703375 0.957743 0.984855 0.926262 0.944495 0.984855 1.00686 0.944495 0.958525 1.00686 1.02157 0.958525 0.966991 1.02157 1.02765 0.966991 0.969053 1.02765 1.02475 0.969053 0.964479 1.02475 1.01339 0.964479 0.953598 1.01339 0.994717 0.953598 0.937157 0.994717 0.970184 0.937157 0.916143 0.970184 0.941303 0.916143 0.891618 0.941303 0.909453 0.891618 0.864585 0.909453 0.875787 0.864585 0.835917 0.875787 0.841195 0.835917 0.806318 0.841195 0.806318 0.806318 0.776316 0.806318 0.771577 0.776316 0.746289 0.771577 0.737222 0.746289 0.716479 0.737222 0.703375 0.716479 0.687037 0.926262 0.944495 0.892447 0.903453 0.944495 0.958525 0.903453 0.911043 0.958525 0.966991 0.911043 0.914438 0.966991 0.969053 0.914438 0.913168 0.969053 0.964479 0.913168 0.907126 0.964479 0.953598 0.907126 0.89654 0.953598 0.937157 0.89654 0.881904 0.937157 0.916143 0.881904 0.863874 0.916143 0.891618 0.863874 0.843168 0.891618 0.864585 0.843168 0.820484 0.864585 0.835917 0.820484 0.796446 0.835917 0.806318 0.796446 0.771577 0.806318 0.776316 0.771577 0.746289 0.776316 0.746289 0.746289 0.72089 0.746289 0.716479 0.72089 0.695599 0.716479 0.687037 0.695599 0.670565 0.892447 0.903453 0.858142 0.862898 0.903453 0.911043 0.862898 0.864942 0.911043 0.914438 0.864942 0.863943 0.914438 0.913168 0.863943 0.859729 0.913168 0.907126 0.859729 0.852313 0.907126 0.89654 0.852313 0.841875 0.89654 0.881904 0.841875 0.828735 0.881904 0.863874 0.828735 0.813299 0.863874 0.843168 0.813299 0.796011 0.843168 0.820484 0.796011 0.777308 0.820484 0.796446 0.777308 0.757595 0.796446 0.771577 0.757595 0.737222 0.771577 0.746289 0.737222 0.716479 0.746289 0.72089 0.716479 0.695599 0.72089 0.695599 0.695599 0.674758 0.695599 0.670565 0.674758 0.654091 0.858142 0.862898 0.824405 0.823369 0.862898 0.864942 0.823369 0.820278 0.864942 0.863943 0.820278 0.815189 0.863943 0.859729 0.815189 0.808195 0.859729 0.852313 0.808195 0.799424 0.852313 0.841875 0.799424 0.789031 0.841875 0.828735 0.789031 0.777196 0.828735 0.813299 0.777196 0.764114 0.813299 0.796011 0.764114 0.749991 0.796011 0.777308 0.749991 0.73503 0.777308 0.757595 0.73503 0.719429 0.757595 0.737222 0.719429 0.703375 0.737222 0.716479 0.703375 0.687037 0.716479 0.695599 0.687037 0.670565 0.695599 0.674758 0.670565 0.654091 0.674758 0.654091 0.654091 0.637725 -1.22465e-15 -0.144169 -0.144169 0.194202 -0.144169 -0.923149 0.194202 -0.242501 -0.144169 0.194202 -0.923149 -0.242501 0.194202 -0.242501 -0.242501 0.991493 -0.923149 0.994065 -0.242501 0.479274 0.994065 0.0929711 0.479274 -0.337893 -0.242501 0.479274 0.991493 0.157066 0.479274 -0.337893 0.157066 -0.638098 0.0929711 -0.822804 -0.337893 -0.867268 -0.822804 -0.988308 -0.867268 -0.837971 -0.337893 -0.867268 -0.638098 -0.824649 -0.867268 -0.837971 -0.824649 -0.624441 -0.988308 -0.750708 -0.837971 -0.541974 -0.750708 -0.395519 -0.541974 -0.188409 -0.837971 -0.541974 -0.624441 -0.28795 -0.541974 -0.188409 -0.28795 0.0499652 -0.395519 -0.052445 -0.188409 0.132125 -0.052445 0.235186 0.132125 0.392703 -0.188409 0.132125 0.0499652 0.337555 0.132125 0.392703 0.337555 0.563733 0.235186 0.460937 0.392703 0.592987 0.460937 0.631565 0.592987 0.741577 0.392703 0.592987 0.563733 0.733519 0.592987 0.741577 0.733519 0.856686 0.631565 0.757131 0.741577 0.848726 0.757131 0.84731 0.848726 0.923731 0.741577 0.848726 0.856686 0.943168 0.848726 0.923731 0.943168 1.00152 0.84731 0.910261 0.923731 0.974232 0.910261 0.952486 0.974232 1.00623 0.923731 0.974232 1.00152 1.03861 0.974232 1.00623 1.03861 1.05976 0.952486 0.979031 1.00623 1.02434 0.979031 0.99376 1.02434 1.03208 1.00623 1.02434 1.05976 1.06905 1.02434 1.03208 1.06905 1.06959 -0.923149 -0.242501 0.994065 0.479274 -0.242501 0.991493 0.479274 0.157066 0.994065 0.479274 0.0929711 -0.337893 0.479274 0.157066 -0.337893 -0.638098 0.991493 0.157066 0.157066 -0.439539 0.157066 -0.638098 -0.439539 -0.741247 0.157066 -0.439539 -0.638098 -0.741247 -0.439539 -0.741247 -0.741247 -0.630796 -0.638098 -0.824649 -0.741247 -0.642277 -0.824649 -0.624441 -0.642277 -0.343339 -0.741247 -0.642277 -0.630796 -0.358821 -0.642277 -0.343339 -0.358821 -0.0287333 -0.624441 -0.28795 -0.343339 -0.00382784 -0.28795 0.0499652 -0.00382784 0.301098 -0.343339 -0.00382784 -0.0287333 0.283509 -0.00382784 0.301098 0.283509 0.544277 0.0499652 0.337555 0.301098 0.547661 0.337555 0.563733 0.547661 0.73554 0.301098 0.547661 0.544277 0.746809 0.547661 0.73554 0.746809 0.896488 0.563733 0.733519 0.73554 0.872908 0.733519 0.856686 0.872908 0.969721 0.73554 0.872908 0.896488 1.00254 0.872908 0.969721 1.00254 1.07431 0.856686 0.943168 0.969721 1.03512 0.943168 1.00152 1.03512 1.07669 0.969721 1.03512 1.07431 1.11985 1.03512 1.07669 1.11985 1.14568 1.00152 1.03861 1.07669 1.10038 1.03861 1.05976 1.10038 1.11079 1.07669 1.10038 1.14568 1.15687 1.10038 1.11079 1.15687 1.15728 1.05976 1.06905 1.11079 1.1114 1.06905 1.06959 1.1114 1.10484 1.11079 1.1114 1.15728 1.14983 1.1114 1.10484 1.14983 1.13672 1.06959 1.0636 1.10484 1.09308 1.0636 1.05289 1.09308 1.07759 1.10484 1.09308 1.13672 1.11959 1.09308 1.07759 1.11959 1.09965 0.0929711 -0.337893 -0.822804 -0.867268 -0.337893 -0.638098 -0.867268 -0.824649 -0.822804 -0.867268 -0.988308 -0.837971 -0.867268 -0.824649 -0.837971 -0.624441 -0.638098 -0.741247 -0.824649 -0.642277 -0.741247 -0.630796 -0.642277 -0.358821 -0.824649 -0.642277 -0.624441 -0.343339 -0.642277 -0.358821 -0.343339 -0.0287333 -0.630796 -0.358821 -0.358821 -0.0340908 -0.358821 -0.0287333 -0.0340908 0.278911 -0.358821 -0.0340908 -0.0287333 0.278911 -0.0340908 0.278911 0.278911 0.550767 -0.0287333 0.283509 0.278911 0.548059 0.283509 0.544277 0.548059 0.762077 0.278911 0.548059 0.550767 0.773083 0.548059 0.762077 0.773083 0.943968 0.544277 0.746809 0.762077 0.922778 0.746809 0.896488 0.922778 1.03774 0.762077 0.922778 0.943968 1.0684 0.922778 1.03774 1.0684 1.15412 0.896488 1.00254 1.03774 1.11592 1.00254 1.07431 1.11592 1.16559 1.03774 1.11592 1.15412 1.20913 1.11592 1.16559 1.20913 1.24058 1.07431 1.11985 1.16559 1.19369 1.11985 1.14568 1.19369 1.20573 1.16559 1.19369 1.24058 1.25432 1.19369 1.20573 1.25432 1.25501 1.14568 1.15687 1.20573 1.20596 1.15687 1.15728 1.20596 1.19759 1.20573 1.20596 1.25501 1.24619 1.20596 1.19759 1.24619 1.23058 1.15728 1.14983 1.19759 1.18307 1.14983 1.13672 1.18307 1.1642 1.19759 1.18307 1.23058 1.21019 1.18307 1.1642 1.21019 1.18655 1.13672 1.11959 1.1642 1.14233 1.11959 1.09965 1.14233 1.11848 1.1642 1.14233 1.18655 1.16073 1.14233 1.11848 1.16073 1.1336 -0.988308 -0.837971 -0.750708 -0.541974 -0.837971 -0.624441 -0.541974 -0.28795 -0.750708 -0.541974 -0.395519 -0.188409 -0.541974 -0.28795 -0.188409 0.0499652 -0.624441 -0.343339 -0.28795 -0.00382784 -0.343339 -0.0287333 -0.00382784 0.283509 -0.28795 -0.00382784 0.0499652 0.301098 -0.00382784 0.283509 0.301098 0.544277 -0.0287333 0.278911 0.283509 0.548059 0.278911 0.550767 0.548059 0.773083 0.283509 0.548059 0.544277 0.762077 0.548059 0.773083 0.762077 0.943968 0.550767 0.773083 0.773083 0.952171 0.773083 0.943968 0.952171 1.08651 0.773083 0.952171 0.943968 1.08651 0.952171 1.08651 1.08651 1.19145 0.943968 1.0684 1.08651 1.18146 1.0684 1.15412 1.18146 1.24395 1.08651 1.18146 1.19145 1.26347 1.18146 1.24395 1.26347 1.30832 1.15412 1.20913 1.24395 1.28083 1.20913 1.24058 1.28083 1.29811 1.24395 1.28083 1.30832 1.33166 1.28083 1.29811 1.33166 1.33852 1.24058 1.25432 1.29811 1.30074 1.25432 1.25501 1.30074 1.29265 1.29811 1.30074 1.33852 1.33308 1.30074 1.29265 1.33308 1.31866 1.25501 1.24619 1.29265 1.27685 1.24619 1.23058 1.27685 1.25562 1.29265 1.27685 1.31866 1.29784 1.27685 1.25562 1.29784 1.27259 1.23058 1.21019 1.25562 1.23068 1.21019 1.18655 1.23068 1.2033 1.25562 1.23068 1.27259 1.2444 1.23068 1.2033 1.2444 1.21436 -0.395519 -0.188409 -0.052445 0.132125 -0.188409 0.0499652 0.132125 0.337555 -0.052445 0.132125 0.235186 0.392703 0.132125 0.337555 0.392703 0.563733 0.0499652 0.301098 0.337555 0.547661 0.301098 0.544277 0.547661 0.746809 0.337555 0.547661 0.563733 0.73554 0.547661 0.746809 0.73554 0.896488 0.544277 0.762077 0.746809 0.922778 0.762077 0.943968 0.922778 1.0684 0.746809 0.922778 0.896488 1.03774 0.922778 1.0684 1.03774 1.15412 0.943968 1.08651 1.0684 1.18146 1.08651 1.19145 1.18146 1.26347 1.0684 1.18146 1.15412 1.24395 1.18146 1.26347 1.24395 1.30832 1.19145 1.26347 1.26347 1.31812 1.26347 1.30832 1.31812 1.34997 1.26347 1.31812 1.30832 1.34997 1.31812 1.34997 1.34997 1.37244 1.30832 1.33166 1.34997 1.36362 1.33166 1.33852 1.36362 1.36323 1.34997 1.36362 1.37244 1.3794 1.36362 1.36323 1.3794 1.37423 1.33852 1.33308 1.36323 1.3523 1.33308 1.31866 1.3523 1.33367 1.36323 1.3523 1.37423 1.35988 1.3523 1.33367 1.35988 1.33879 1.31866 1.29784 1.33367 1.30959 1.29784 1.27259 1.30959 1.28176 1.33367 1.30959 1.33879 1.31289 1.30959 1.28176 1.31289 1.28374 1.27259 1.2444 1.28176 1.25151 1.2444 1.21436 1.25151 1.21978 1.28176 1.25151 1.28374 1.25242 1.25151 1.21978 1.25242 1.21988 0.235186 0.392703 0.460937 0.592987 0.392703 0.563733 0.592987 0.733519 0.460937 0.592987 0.631565 0.741577 0.592987 0.733519 0.741577 0.856686 0.563733 0.73554 0.733519 0.872908 0.73554 0.896488 0.872908 1.00254 0.733519 0.872908 0.856686 0.969721 0.872908 1.00254 0.969721 1.07431 0.896488 1.03774 1.00254 1.11592 1.03774 1.15412 1.11592 1.20913 1.00254 1.11592 1.07431 1.16559 1.11592 1.20913 1.16559 1.24058 1.15412 1.24395 1.20913 1.28083 1.24395 1.30832 1.28083 1.33166 1.20913 1.28083 1.24058 1.29811 1.28083 1.33166 1.29811 1.33852 1.30832 1.34997 1.33166 1.36362 1.34997 1.37244 1.36362 1.3794 1.33166 1.36362 1.33852 1.36323 1.36362 1.3794 1.36323 1.37423 1.37244 1.3794 1.3794 1.38186 1.3794 1.37423 1.38186 1.37377 1.3794 1.38186 1.37423 1.37377 1.38186 1.37377 1.37377 1.36405 1.37423 1.35988 1.37377 1.35756 1.35988 1.33879 1.35756 1.33533 1.37377 1.35756 1.36405 1.34711 1.35756 1.33533 1.34711 1.3247 1.33879 1.31289 1.33533 1.30876 1.31289 1.28374 1.30876 1.27921 1.33533 1.30876 1.3247 1.29831 1.30876 1.27921 1.29831 1.26913 0.631565 0.741577 0.757131 0.848726 0.741577 0.856686 0.848726 0.943168 0.757131 0.848726 0.84731 0.923731 0.848726 0.943168 0.923731 1.00152 0.856686 0.969721 0.943168 1.03512 0.969721 1.07431 1.03512 1.11985 0.943168 1.03512 1.00152 1.07669 1.03512 1.11985 1.07669 1.14568 1.07431 1.16559 1.11985 1.19369 1.16559 1.24058 1.19369 1.25432 1.11985 1.19369 1.14568 1.20573 1.19369 1.25432 1.20573 1.25501 1.24058 1.29811 1.25432 1.30074 1.29811 1.33852 1.30074 1.33308 1.25432 1.30074 1.25501 1.29265 1.30074 1.33308 1.29265 1.31866 1.33852 1.36323 1.33308 1.3523 1.36323 1.37423 1.3523 1.35988 1.33308 1.3523 1.31866 1.33367 1.3523 1.35988 1.33367 1.33879 1.37423 1.37377 1.35988 1.35756 1.37377 1.36405 1.35756 1.34711 1.35988 1.35756 1.33879 1.33533 1.35756 1.34711 1.33533 1.3247 1.36405 1.34711 1.34711 1.33017 1.34711 1.3247 1.33017 1.30826 1.34711 1.33017 1.3247 1.30826 1.33017 1.30826 1.30826 1.28725 1.3247 1.29831 1.30826 1.28263 1.29831 1.26913 1.28263 1.25436 1.30826 1.28263 1.28725 1.26277 1.28263 1.25436 1.26277 1.23576 0.84731 0.923731 0.910261 0.974232 0.923731 1.00152 0.974232 1.03861 0.910261 0.974232 0.952486 1.00623 0.974232 1.03861 1.00623 1.05976 1.00152 1.07669 1.03861 1.10038 1.07669 1.14568 1.10038 1.15687 1.03861 1.10038 1.05976 1.11079 1.10038 1.15687 1.11079 1.15728 1.14568 1.20573 1.15687 1.20596 1.20573 1.25501 1.20596 1.24619 1.15687 1.20596 1.15728 1.19759 1.20596 1.24619 1.19759 1.23058 1.25501 1.29265 1.24619 1.27685 1.29265 1.31866 1.27685 1.29784 1.24619 1.27685 1.23058 1.25562 1.27685 1.29784 1.25562 1.27259 1.31866 1.33367 1.29784 1.30959 1.33367 1.33879 1.30959 1.31289 1.29784 1.30959 1.27259 1.28176 1.30959 1.31289 1.28176 1.28374 1.33879 1.33533 1.31289 1.30876 1.33533 1.3247 1.30876 1.29831 1.31289 1.30876 1.28374 1.27921 1.30876 1.29831 1.27921 1.26913 1.3247 1.30826 1.29831 1.28263 1.30826 1.28725 1.28263 1.26277 1.29831 1.28263 1.26913 1.25436 1.28263 1.26277 1.25436 1.23576 1.28725 1.26277 1.26277 1.23967 1.26277 1.23576 1.23967 1.21415 1.26277 1.23967 1.23576 1.21415 1.23967 1.21415 1.21415 1.19019 0.952486 1.00623 0.979031 1.02434 1.00623 1.05976 1.02434 1.06905 0.979031 1.02434 0.99376 1.03208 1.02434 1.06905 1.03208 1.06959 1.05976 1.11079 1.06905 1.1114 1.11079 1.15728 1.1114 1.14983 1.06905 1.1114 1.06959 1.10484 1.1114 1.14983 1.10484 1.13672 1.15728 1.19759 1.14983 1.18307 1.19759 1.23058 1.18307 1.21019 1.14983 1.18307 1.13672 1.1642 1.18307 1.21019 1.1642 1.18655 1.23058 1.25562 1.21019 1.23068 1.25562 1.27259 1.23068 1.2444 1.21019 1.23068 1.18655 1.2033 1.23068 1.2444 1.2033 1.21436 1.27259 1.28176 1.2444 1.25151 1.28176 1.28374 1.25151 1.25242 1.2444 1.25151 1.21436 1.21978 1.25151 1.25242 1.21978 1.21988 1.06959 1.10484 1.0636 1.09308 1.10484 1.13672 1.09308 1.11959 1.0636 1.09308 1.05289 1.07759 1.09308 1.11959 1.07759 1.09965 1.13672 1.1642 1.11959 1.14233 1.1642 1.18655 1.14233 1.16073 1.11959 1.14233 1.09965 1.11848 1.14233 1.16073 1.11848 1.1336 
