# vtk DataFile Version 3.0
#This file was generated by the deal.II library on 2020/5/26 at 23:29:12
ASCII
DATASET UNSTRUCTURED_GRID

POINTS 3736 double
0.75 0 0
0.8125 0 0
0.75 0.0625 0
0.8125 0.0625 0
0.8125 0 0
0.875 0 0
0.8125 0.0625 0
0.875 0.0625 0
0.875 0 0
0.9375 0 0
0.875 0.0625 0
0.9375 0.0625 0
0.9375 0 0
1 0 0
0.9375 0.0625 0
1 0.0625 0
0.6875 0.0625 0
0.75 0.0625 0
0.6875 0.125 0
0.75 0.125 0
0.75 0.0625 0
0.8125 0.0625 0
0.75 0.125 0
0.8125 0.125 0
0.8125 0.0625 0
0.875 0.0625 0
0.8125 0.125 0
0.875 0.125 0
0.875 0.0625 0
0.9375 0.0625 0
0.875 0.125 0
0.9375 0.125 0
0.9375 0.0625 0
1 0.0625 0
0.9375 0.125 0
1 0.125 0
0.6875 0.125 0
0.75 0.125 0
0.6875 0.1875 0
0.75 0.1875 0
0.75 0.125 0
0.8125 0.125 0
0.75 0.1875 0
0.8125 0.1875 0
0.8125 0.125 0
0.875 0.125 0
0.8125 0.1875 0
0.875 0.1875 0
0.875 0.125 0
0.9375 0.125 0
0.875 0.1875 0
0.9375 0.1875 0
0.9375 0.125 0
1 0.125 0
0.9375 0.1875 0
1 0.1875 0
0.6875 0.1875 0
0.75 0.1875 0
0.6875 0.25 0
0.75 0.25 0
0.75 0.1875 0
0.8125 0.1875 0
0.75 0.25 0
0.8125 0.25 0
0.8125 0.1875 0
0.875 0.1875 0
0.8125 0.25 0
0.875 0.25 0
0.875 0.1875 0
0.9375 0.1875 0
0.875 0.25 0
0.9375 0.25 0
0.9375 0.1875 0
1 0.1875 0
0.9375 0.25 0
1 0.25 0
0.625 0.25 0
0.6875 0.25 0
0.625 0.3125 0
0.6875 0.3125 0
0.6875 0.25 0
0.75 0.25 0
0.6875 0.3125 0
0.75 0.3125 0
0.75 0.25 0
0.8125 0.25 0
0.75 0.3125 0
0.8125 0.3125 0
0.8125 0.25 0
0.875 0.25 0
0.8125 0.3125 0
0.875 0.3125 0
0.875 0.25 0
0.9375 0.25 0
0.875 0.3125 0
0.9375 0.3125 0
0.9375 0.25 0
1 0.25 0
0.9375 0.3125 0
1 0.3125 0
0.625 0.3125 0
0.6875 0.3125 0
0.625 0.375 0
0.6875 0.375 0
0.6875 0.3125 0
0.75 0.3125 0
0.6875 0.375 0
0.75 0.375 0
0.75 0.3125 0
0.8125 0.3125 0
0.75 0.375 0
0.8125 0.375 0
0.8125 0.3125 0
0.875 0.3125 0
0.8125 0.375 0
0.875 0.375 0
0.875 0.3125 0
0.9375 0.3125 0
0.875 0.375 0
0.9375 0.375 0
0.9375 0.3125 0
1 0.3125 0
0.9375 0.375 0
1 0.375 0
0.5625 0.375 0
0.625 0.375 0
0.5625 0.4375 0
0.625 0.4375 0
0.625 0.375 0
0.6875 0.375 0
0.625 0.4375 0
0.6875 0.4375 0
0.6875 0.375 0
0.75 0.375 0
0.6875 0.4375 0
0.75 0.4375 0
0.75 0.375 0
0.8125 0.375 0
0.75 0.4375 0
0.8125 0.4375 0
0.8125 0.375 0
0.875 0.375 0
0.8125 0.4375 0
0.875 0.4375 0
0.875 0.375 0
0.9375 0.375 0
0.875 0.4375 0
0.9375 0.4375 0
0.9375 0.375 0
1 0.375 0
0.9375 0.4375 0
1 0.4375 0
0.5625 0.4375 0
0.625 0.4375 0
0.5625 0.5 0
0.625 0.5 0
0.625 0.4375 0
0.6875 0.4375 0
0.625 0.5 0
0.6875 0.5 0
0.6875 0.4375 0
0.75 0.4375 0
0.6875 0.5 0
0.75 0.5 0
0.75 0.4375 0
0.8125 0.4375 0
0.75 0.5 0
0.8125 0.5 0
0.8125 0.4375 0
0.875 0.4375 0
0.8125 0.5 0
0.875 0.5 0
0.875 0.4375 0
0.9375 0.4375 0
0.875 0.5 0
0.9375 0.5 0
0.9375 0.4375 0
1 0.4375 0
0.9375 0.5 0
1 0.5 0
0.5 0.5 0
0.5625 0.5 0
0.5 0.5625 0
0.5625 0.5625 0
0.5625 0.5 0
0.625 0.5 0
0.5625 0.5625 0
0.625 0.5625 0
0.625 0.5 0
0.6875 0.5 0
0.625 0.5625 0
0.6875 0.5625 0
0.6875 0.5 0
0.75 0.5 0
0.6875 0.5625 0
0.75 0.5625 0
0.75 0.5 0
0.8125 0.5 0
0.75 0.5625 0
0.8125 0.5625 0
0.8125 0.5 0
0.875 0.5 0
0.8125 0.5625 0
0.875 0.5625 0
0.875 0.5 0
0.9375 0.5 0
0.875 0.5625 0
0.9375 0.5625 0
0.9375 0.5 0
1 0.5 0
0.9375 0.5625 0
1 0.5625 0
0.375 0.5625 0
0.4375 0.5625 0
0.375 0.625 0
0.4375 0.625 0
0.4375 0.5625 0
0.5 0.5625 0
0.4375 0.625 0
0.5 0.625 0
0.5 0.5625 0
0.5625 0.5625 0
0.5 0.625 0
0.5625 0.625 0
0.5625 0.5625 0
0.625 0.5625 0
0.5625 0.625 0
0.625 0.625 0
0.625 0.5625 0
0.6875 0.5625 0
0.625 0.625 0
0.6875 0.625 0
0.6875 0.5625 0
0.75 0.5625 0
0.6875 0.625 0
0.75 0.625 0
0.75 0.5625 0
0.8125 0.5625 0
0.75 0.625 0
0.8125 0.625 0
0.8125 0.5625 0
0.875 0.5625 0
0.8125 0.625 0
0.875 0.625 0
0.875 0.5625 0
0.9375 0.5625 0
0.875 0.625 0
0.9375 0.625 0
0.9375 0.5625 0
1 0.5625 0
0.9375 0.625 0
1 0.625 0
0.25 0.625 0
0.3125 0.625 0
0.25 0.6875 0
0.3125 0.6875 0
0.3125 0.625 0
0.375 0.625 0
0.3125 0.6875 0
0.375 0.6875 0
0.375 0.625 0
0.4375 0.625 0
0.375 0.6875 0
0.4375 0.6875 0
0.4375 0.625 0
0.5 0.625 0
0.4375 0.6875 0
0.5 0.6875 0
0.5 0.625 0
0.5625 0.625 0
0.5 0.6875 0
0.5625 0.6875 0
0.5625 0.625 0
0.625 0.625 0
0.5625 0.6875 0
0.625 0.6875 0
0.625 0.625 0
0.6875 0.625 0
0.625 0.6875 0
0.6875 0.6875 0
0.6875 0.625 0
0.75 0.625 0
0.6875 0.6875 0
0.75 0.6875 0
0.75 0.625 0
0.8125 0.625 0
0.75 0.6875 0
0.8125 0.6875 0
0.8125 0.625 0
0.875 0.625 0
0.8125 0.6875 0
0.875 0.6875 0
0.875 0.625 0
0.9375 0.625 0
0.875 0.6875 0
0.9375 0.6875 0
0.9375 0.625 0
1 0.625 0
0.9375 0.6875 0
1 0.6875 0
0.0625 0.6875 0
0.125 0.6875 0
0.0625 0.75 0
0.125 0.75 0
0.125 0.6875 0
0.1875 0.6875 0
0.125 0.75 0
0.1875 0.75 0
0.1875 0.6875 0
0.25 0.6875 0
0.1875 0.75 0
0.25 0.75 0
0.25 0.6875 0
0.3125 0.6875 0
0.25 0.75 0
0.3125 0.75 0
0.3125 0.6875 0
0.375 0.6875 0
0.3125 0.75 0
0.375 0.75 0
0.375 0.6875 0
0.4375 0.6875 0
0.375 0.75 0
0.4375 0.75 0
0.4375 0.6875 0
0.5 0.6875 0
0.4375 0.75 0
0.5 0.75 0
0.5 0.6875 0
0.5625 0.6875 0
0.5 0.75 0
0.5625 0.75 0
0.5625 0.6875 0
0.625 0.6875 0
0.5625 0.75 0
0.625 0.75 0
0.625 0.6875 0
0.6875 0.6875 0
0.625 0.75 0
0.6875 0.75 0
0.6875 0.6875 0
0.75 0.6875 0
0.6875 0.75 0
0.75 0.75 0
0.75 0.6875 0
0.8125 0.6875 0
0.75 0.75 0
0.8125 0.75 0
0.8125 0.6875 0
0.875 0.6875 0
0.8125 0.75 0
0.875 0.75 0
0.875 0.6875 0
0.9375 0.6875 0
0.875 0.75 0
0.9375 0.75 0
0.9375 0.6875 0
1 0.6875 0
0.9375 0.75 0
1 0.75 0
0 0.75 0
0.0625 0.75 0
0 0.8125 0
0.0625 0.8125 0
0.0625 0.75 0
0.125 0.75 0
0.0625 0.8125 0
0.125 0.8125 0
0.125 0.75 0
0.1875 0.75 0
0.125 0.8125 0
0.1875 0.8125 0
0.1875 0.75 0
0.25 0.75 0
0.1875 0.8125 0
0.25 0.8125 0
0.25 0.75 0
0.3125 0.75 0
0.25 0.8125 0
0.3125 0.8125 0
0.3125 0.75 0
0.375 0.75 0
0.3125 0.8125 0
0.375 0.8125 0
0.375 0.75 0
0.4375 0.75 0
0.375 0.8125 0
0.4375 0.8125 0
0.4375 0.75 0
0.5 0.75 0
0.4375 0.8125 0
0.5 0.8125 0
0.5 0.75 0
0.5625 0.75 0
0.5 0.8125 0
0.5625 0.8125 0
0.5625 0.75 0
0.625 0.75 0
0.5625 0.8125 0
0.625 0.8125 0
0.625 0.75 0
0.6875 0.75 0
0.625 0.8125 0
0.6875 0.8125 0
0.6875 0.75 0
0.75 0.75 0
0.6875 0.8125 0
0.75 0.8125 0
0.75 0.75 0
0.8125 0.75 0
0.75 0.8125 0
0.8125 0.8125 0
0.8125 0.75 0
0.875 0.75 0
0.8125 0.8125 0
0.875 0.8125 0
0.875 0.75 0
0.9375 0.75 0
0.875 0.8125 0
0.9375 0.8125 0
0.9375 0.75 0
1 0.75 0
0.9375 0.8125 0
1 0.8125 0
0 0.8125 0
0.0625 0.8125 0
0 0.875 0
0.0625 0.875 0
0.0625 0.8125 0
0.125 0.8125 0
0.0625 0.875 0
0.125 0.875 0
0.125 0.8125 0
0.1875 0.8125 0
0.125 0.875 0
0.1875 0.875 0
0.1875 0.8125 0
0.25 0.8125 0
0.1875 0.875 0
0.25 0.875 0
0.25 0.8125 0
0.3125 0.8125 0
0.25 0.875 0
0.3125 0.875 0
0.3125 0.8125 0
0.375 0.8125 0
0.3125 0.875 0
0.375 0.875 0
0.375 0.8125 0
0.4375 0.8125 0
0.375 0.875 0
0.4375 0.875 0
0.4375 0.8125 0
0.5 0.8125 0
0.4375 0.875 0
0.5 0.875 0
0.5 0.8125 0
0.5625 0.8125 0
0.5 0.875 0
0.5625 0.875 0
0.5625 0.8125 0
0.625 0.8125 0
0.5625 0.875 0
0.625 0.875 0
0.625 0.8125 0
0.6875 0.8125 0
0.625 0.875 0
0.6875 0.875 0
0.6875 0.8125 0
0.75 0.8125 0
0.6875 0.875 0
0.75 0.875 0
0.75 0.8125 0
0.8125 0.8125 0
0.75 0.875 0
0.8125 0.875 0
0.8125 0.8125 0
0.875 0.8125 0
0.8125 0.875 0
0.875 0.875 0
0.875 0.8125 0
0.9375 0.8125 0
0.875 0.875 0
0.9375 0.875 0
0.9375 0.8125 0
1 0.8125 0
0.9375 0.875 0
1 0.875 0
0 0.875 0
0.0625 0.875 0
0 0.9375 0
0.0625 0.9375 0
0.0625 0.875 0
0.125 0.875 0
0.0625 0.9375 0
0.125 0.9375 0
0.125 0.875 0
0.1875 0.875 0
0.125 0.9375 0
0.1875 0.9375 0
0.1875 0.875 0
0.25 0.875 0
0.1875 0.9375 0
0.25 0.9375 0
0.25 0.875 0
0.3125 0.875 0
0.25 0.9375 0
0.3125 0.9375 0
0.3125 0.875 0
0.375 0.875 0
0.3125 0.9375 0
0.375 0.9375 0
0.375 0.875 0
0.4375 0.875 0
0.375 0.9375 0
0.4375 0.9375 0
0.4375 0.875 0
0.5 0.875 0
0.4375 0.9375 0
0.5 0.9375 0
0.5 0.875 0
0.5625 0.875 0
0.5 0.9375 0
0.5625 0.9375 0
0.5625 0.875 0
0.625 0.875 0
0.5625 0.9375 0
0.625 0.9375 0
0.625 0.875 0
0.6875 0.875 0
0.625 0.9375 0
0.6875 0.9375 0
0.6875 0.875 0
0.75 0.875 0
0.6875 0.9375 0
0.75 0.9375 0
0.75 0.875 0
0.8125 0.875 0
0.75 0.9375 0
0.8125 0.9375 0
0.8125 0.875 0
0.875 0.875 0
0.8125 0.9375 0
0.875 0.9375 0
0.875 0.875 0
0.9375 0.875 0
0.875 0.9375 0
0.9375 0.9375 0
0.9375 0.875 0
1 0.875 0
0.9375 0.9375 0
1 0.9375 0
0 0.9375 0
0.0625 0.9375 0
0 1 0
0.0625 1 0
0.0625 0.9375 0
0.125 0.9375 0
0.0625 1 0
0.125 1 0
0.125 0.9375 0
0.1875 0.9375 0
0.125 1 0
0.1875 1 0
0.1875 0.9375 0
0.25 0.9375 0
0.1875 1 0
0.25 1 0
0.25 0.9375 0
0.3125 0.9375 0
0.25 1 0
0.3125 1 0
0.3125 0.9375 0
0.375 0.9375 0
0.3125 1 0
0.375 1 0
0.375 0.9375 0
0.4375 0.9375 0
0.375 1 0
0.4375 1 0
0.4375 0.9375 0
0.5 0.9375 0
0.4375 1 0
0.5 1 0
0.5 0.9375 0
0.5625 0.9375 0
0.5 1 0
0.5625 1 0
0.5625 0.9375 0
0.625 0.9375 0
0.5625 1 0
0.625 1 0
0.625 0.9375 0
0.6875 0.9375 0
0.625 1 0
0.6875 1 0
0.6875 0.9375 0
0.75 0.9375 0
0.6875 1 0
0.75 1 0
0.75 0.9375 0
0.8125 0.9375 0
0.75 1 0
0.8125 1 0
0.8125 0.9375 0
0.875 0.9375 0
0.8125 1 0
0.875 1 0
0.875 0.9375 0
0.9375 0.9375 0
0.875 1 0
0.9375 1 0
0.9375 0.9375 0
1 0.9375 0
0.9375 1 0
1 1 0
0.34375 0 0
0.375 0 0
0.34375 0.03125 0
0.375 0.03125 0
0.34375 0.03125 0
0.375 0.03125 0
0.34375 0.0625 0
0.375 0.0625 0
0.375 0 0
0.40625 0 0
0.375 0.03125 0
0.40625 0.03125 0
0.40625 0 0
0.4375 0 0
0.40625 0.03125 0
0.4375 0.03125 0
0.375 0.03125 0
0.40625 0.03125 0
0.375 0.0625 0
0.40625 0.0625 0
0.40625 0.03125 0
0.4375 0.03125 0
0.40625 0.0625 0
0.4375 0.0625 0
0.4375 0 0
0.46875 0 0
0.4375 0.03125 0
0.46875 0.03125 0
0.46875 0 0
0.5 0 0
0.46875 0.03125 0
0.5 0.03125 0
0.4375 0.03125 0
0.46875 0.03125 0
0.4375 0.0625 0
0.46875 0.0625 0
0.46875 0.03125 0
0.5 0.03125 0
0.46875 0.0625 0
0.5 0.0625 0
0.5 0 0
0.53125 0 0
0.5 0.03125 0
0.53125 0.03125 0
0.5 0.03125 0
0.53125 0.03125 0
0.5 0.0625 0
0.53125 0.0625 0
0.34375 0.0625 0
0.375 0.0625 0
0.34375 0.09375 0
0.375 0.09375 0
0.375 0.0625 0
0.40625 0.0625 0
0.375 0.09375 0
0.40625 0.09375 0
0.40625 0.0625 0
0.4375 0.0625 0
0.40625 0.09375 0
0.4375 0.09375 0
0.375 0.09375 0
0.40625 0.09375 0
0.375 0.125 0
0.40625 0.125 0
0.40625 0.09375 0
0.4375 0.09375 0
0.40625 0.125 0
0.4375 0.125 0
0.4375 0.0625 0
0.46875 0.0625 0
0.4375 0.09375 0
0.46875 0.09375 0
0.46875 0.0625 0
0.5 0.0625 0
0.46875 0.09375 0
0.5 0.09375 0
0.4375 0.09375 0
[...]
POINT_DATA 3736
SCALARS solution double 1
LOOKUP_TABLE default
0.957743 0.926262 1.66289 1.41106 0.926262 0.892447 1.41106 1.19598 0.892447 0.858142 1.19598 1.00387 0.858142 0.824405 1.00387 0.823369 1.9691 1.66289 2.85135 2.29989 1.66289 1.41106 2.29989 1.85176 1.41106 1.19598 1.85176 1.47252 1.19598 1.00387 1.47252 1.13591 1.00387 0.823369 1.13591 0.820278 2.85135 2.29989 3.55033 2.81605 2.29989 1.85176 2.81605 2.21403 1.85176 1.47252 2.21403 1.70146 1.47252 1.13591 1.70146 1.24465 1.13591 0.820278 1.24465 0.815189 3.55033 2.81605 4.02244 3.17924 2.81605 2.21403 3.17924 2.47574 2.21403 1.70146 2.47574 1.869 1.70146 1.24465 1.869 1.32348 1.24465 0.815189 1.32348 0.808195 5.05787 4.02244 5.31243 4.26142 4.02244 3.17924 4.26142 3.3805 3.17924 2.47574 3.3805 2.6287 2.47574 1.869 2.6287 1.96924 1.869 1.32348 1.96924 1.36943 1.32348 0.808195 1.36943 0.799424 5.31243 4.26142 5.28452 4.29086 4.26142 3.3805 4.29086 3.43047 3.3805 2.6287 3.43047 2.67723 2.6287 1.96924 2.67723 2.00367 1.96924 1.36943 2.00367 1.38295 1.36943 0.799424 1.38295 0.789031 6.43158 5.28452 6.02895 5.04281 5.28452 4.29086 5.04281 4.15124 4.29086 3.43047 4.15124 3.35266 3.43047 2.67723 3.35266 2.63458 2.67723 2.00367 2.63458 1.97935 2.00367 1.38295 1.97935 1.36714 1.38295 0.789031 1.36714 0.777196 6.02895 5.04281 5.4715 4.65675 5.04281 4.15124 4.65675 3.88824 4.15124 3.35266 3.88824 3.17626 3.35266 2.63458 3.17626 2.51876 2.63458 1.97935 2.51876 1.90662 1.97935 1.36714 1.90662 1.32679 1.36714 0.777196 1.32679 0.764114 6.30303 5.4715 5.4715 4.83916 5.4715 4.65675 4.83916 4.18586 4.65675 3.88824 4.18586 3.54423 3.88824 3.17626 3.54423 2.93032 3.17626 2.51876 2.93032 2.34879 2.51876 1.90662 2.34879 1.79691 1.90662 1.32679 1.79691 1.26733 1.32679 0.764114 1.26733 0.749991 6.43158 6.02895 5.28452 5.04281 6.02895 5.4715 5.04281 4.65675 5.4715 4.83916 4.65675 4.18586 4.83916 4.18586 4.18586 3.67484 4.18586 3.54423 3.67484 3.1537 3.54423 2.93032 3.1537 2.64006 2.93032 2.34879 2.64006 2.14205 2.34879 1.79691 2.14205 1.66107 1.79691 1.26733 1.66107 1.19402 1.26733 0.749991 1.19402 0.73503 5.05787 5.31243 4.02244 4.26142 5.31243 5.28452 4.26142 4.29086 5.28452 5.04281 4.29086 4.15124 5.04281 4.65675 4.15124 3.88824 4.65675 4.18586 3.88824 3.54423 4.18586 3.67484 3.54423 3.1537 3.67484 3.1537 3.1537 2.74186 3.1537 2.64006 2.74186 2.32515 2.64006 2.14205 2.32515 1.91275 2.14205 1.66107 1.91275 1.5083 1.66107 1.19402 1.5083 1.11147 1.19402 0.73503 1.11147 0.719429 1.9691 2.85135 1.66289 2.29989 2.85135 3.55033 2.29989 2.81605 3.55033 4.02244 2.81605 3.17924 4.02244 4.26142 3.17924 3.3805 4.26142 4.29086 3.3805 3.43047 4.29086 4.15124 3.43047 3.35266 4.15124 3.88824 3.35266 3.17626 3.88824 3.54423 3.17626 2.93032 3.54423 3.1537 2.93032 2.64006 3.1537 2.74186 2.64006 2.32515 2.74186 2.32515 2.32515 1.99942 2.32515 1.91275 1.99942 1.67149 1.91275 1.5083 1.67149 1.3457 1.5083 1.11147 1.3457 1.02329 1.11147 0.719429 1.02329 0.703375 0.957743 1.66289 0.926262 1.41106 1.66289 2.29989 1.41106 1.85176 2.29989 2.81605 1.85176 2.21403 2.81605 3.17924 2.21403 2.47574 3.17924 3.3805 2.47574 2.6287 3.3805 3.43047 2.6287 2.67723 3.43047 3.35266 2.67723 2.63458 3.35266 3.17626 2.63458 2.51876 3.17626 2.93032 2.51876 2.34879 2.93032 2.64006 2.34879 2.14205 2.64006 2.32515 2.14205 1.91275 2.32515 1.99942 1.91275 1.67149 1.99942 1.67149 1.67149 1.4253 1.67149 1.3457 1.4253 1.17825 1.3457 1.02329 1.17825 0.932103 1.02329 0.703375 0.932103 0.687037 0.926262 1.41106 0.892447 1.19598 1.41106 1.85176 1.19598 1.47252 1.85176 2.21403 1.47252 1.70146 2.21403 2.47574 1.70146 1.869 2.47574 2.6287 1.869 1.96924 2.6287 2.67723 1.96924 2.00367 2.67723 2.63458 2.00367 1.97935 2.63458 2.51876 1.97935 1.90662 2.51876 2.34879 1.90662 1.79691 2.34879 2.14205 1.79691 1.66107 2.14205 1.91275 1.66107 1.5083 1.91275 1.67149 1.5083 1.3457 1.67149 1.4253 1.3457 1.17825 1.4253 1.17825 1.17825 1.00903 1.17825 0.932103 1.00903 0.839618 0.932103 0.687037 0.839618 0.670565 0.892447 1.19598 0.858142 1.00387 1.19598 1.47252 1.00387 1.13591 1.47252 1.70146 1.13591 1.24465 1.70146 1.869 1.24465 1.32348 1.869 1.96924 1.32348 1.36943 1.96924 2.00367 1.36943 1.38295 2.00367 1.97935 1.38295 1.36714 1.97935 1.90662 1.36714 1.32679 1.90662 1.79691 1.32679 1.26733 1.79691 1.66107 1.26733 1.19402 1.66107 1.5083 1.19402 1.11147 1.5083 1.3457 1.11147 1.02329 1.3457 1.17825 1.02329 0.932103 1.17825 1.00903 0.932103 0.839618 1.00903 0.839618 0.839618 0.746799 0.839618 0.670565 0.746799 0.654091 0.858142 1.00387 0.824405 0.823369 1.00387 1.13591 0.823369 0.820278 1.13591 1.24465 0.820278 0.815189 1.24465 1.32348 0.815189 0.808195 1.32348 1.36943 0.808195 0.799424 1.36943 1.38295 0.799424 0.789031 1.38295 1.36714 0.789031 0.777196 1.36714 1.32679 0.777196 0.764114 1.32679 1.26733 0.764114 0.749991 1.26733 1.19402 0.749991 0.73503 1.19402 1.11147 0.73503 0.719429 1.11147 1.02329 0.719429 0.703375 1.02329 0.932103 0.703375 0.687037 0.932103 0.839618 0.687037 0.670565 0.839618 0.746799 0.670565 0.654091 0.746799 0.654091 0.654091 0.637725 0.460937 0.631565 3.54832 3.23321 3.54832 3.23321 6.44065 5.68453 0.631565 0.757131 3.23321 2.94542 0.757131 0.84731 2.94542 2.68957 3.23321 2.94542 5.68453 5.01855 2.94542 2.68957 5.01855 4.44344 0.84731 0.910261 2.68957 2.46464 0.910261 0.952486 2.46464 2.26754 2.68957 2.46464 4.44344 3.95081 2.46464 2.26754 3.95081 3.52957 0.952486 0.979031 2.26754 2.09464 2.26754 2.09464 3.52957 3.16867 6.44065 5.68453 8.95616 7.84503 5.68453 5.01855 7.84503 6.86853 5.01855 4.44344 6.86853 6.0258 7.84503 6.86853 9.6144 8.41527 6.86853 6.0258 8.41527 7.37293 4.44344 3.95081 6.0258 5.3045 3.95081 3.52957 5.3045 4.6886 6.0258 5.3045 7.37293 6.47505 5.3045 4.6886 6.47505 5.70425 3.52957 3.16867 4.6886 4.16206 4.6886 4.16206 5.70425 5.04247 4.16206 3.71031 5.04247 4.47292 3.71031 3.32086 4.47292 3.98078 3.32086 2.98315 3.98078 3.55334 9.6144 8.41527 10.94 9.61299 8.41527 7.37293 9.61299 8.44555 10.94 9.61299 11.8167 10.4504 9.61299 8.44555 10.4504 9.22945 7.37293 6.47505 8.44555 7.42915 6.47505 5.70425 7.42915 6.54858 8.44555 7.42915 9.22945 8.15184 7.42915 6.54858 8.15184 7.20709 5.70425 5.04247 6.54858 5.78668 5.04247 4.47292 5.78668 5.12667 6.54858 5.78668 7.20709 6.38124 5.78668 5.12667 6.38124 5.65951 4.47292 3.98078 5.12667 4.55328 3.98078 3.55334 4.55328 4.05305 5.12667 4.55328 5.65951 5.02776 4.55328 4.05305 5.02776 4.47304 17.8616 16.6195 17.2372 16.2228 16.6195 15.1853 16.2228 14.9948 14.8985 13.3141 15.1853 13.7078 13.3141 11.8167 13.7078 12.2778 15.1853 13.7078 14.9948 13.6848 13.7078 12.2778 13.6848 12.3807 11.8167 10.4504 12.2778 10.9453 10.4504 9.22945 10.9453 9.73253 12.2778 10.9453 12.3807 11.136 10.9453 9.73253 11.136 9.97942 9.22945 8.15184 9.73253 8.64487 8.15184 7.20709 8.64487 7.67789 9.73253 8.64487 9.97942 8.92334 8.64487 7.67789 8.92334 7.96968 7.20709 6.38124 7.67789 6.82229 6.38124 5.65951 6.82229 6.06665 7.67789 6.82229 7.96968 7.11429 6.82229 6.06665 7.11429 6.3498 17.8616 17.2372 16.6195 16.2228 16.6195 16.2228 15.1853 14.9948 17.2372 16.2228 16.2228 15.4523 16.2228 14.9948 15.4523 14.4535 16.2228 15.4523 14.9948 14.4535 15.4523 14.4535 14.4535 13.6786 14.9948 13.6848 14.4535 13.3405 13.6848 12.3807 13.3405 12.1954 14.4535 13.3405 13.6786 12.767 13.3405 12.1954 12.767 11.7928 12.3807 11.136 12.1954 11.0726 11.136 9.97942 11.0726 10.0053 12.1954 11.0726 11.7928 10.8087 11.0726 10.0053 10.8087 9.85024 9.97942 8.92334 10.0053 9.01159 8.92334 7.96968 9.01159 8.09893 10.0053 9.01159 9.85024 8.93903 9.01159 8.09893 8.93903 8.08697 7.96968 7.11429 8.09893 7.26815 7.11429 6.3498 7.26815 6.51598 8.09893 7.26815 8.08697 7.2991 0.460937 3.54832 0.631565 3.23321 3.54832 6.44065 3.23321 5.68453 6.44065 8.95616 5.68453 7.84503 14.8985 15.1853 13.3141 13.7078 15.1853 14.9948 13.7078 13.6848 13.3141 13.7078 11.8167 12.2778 13.7078 13.6848 12.2778 12.3807 14.9948 14.4535 13.6848 13.3405 14.4535 13.6786 13.3405 12.767 13.6848 13.3405 12.3807 12.1954 13.3405 12.767 12.1954 11.7928 13.6786 12.767 12.767 12.0445 12.767 11.7928 12.0445 11.2378 12.767 12.0445 11.7928 11.2378 12.0445 11.2378 11.2378 10.5857 11.7928 10.8087 11.2378 10.3961 10.8087 9.85024 10.3961 9.55443 11.2378 10.3961 10.5857 9.88033 10.3961 9.55443 9.88033 9.15515 9.85024 8.93903 9.55443 8.73663 8.93903 8.08697 8.73663 7.95737 9.55443 8.73663 9.15515 8.43412 0.631565 3.23321 0.757131 2.94542 3.23321 5.68453 2.94542 5.01855 0.757131 2.94542 0.84731 2.68957 2.94542 5.01855 2.68957 4.44344 5.68453 7.84503 5.01855 6.86853 7.84503 9.6144 6.86853 8.41527 5.01855 6.86853 4.44344 6.0258 6.86853 8.41527 6.0258 7.37293 9.6144 10.94 8.41527 9.61299 10.94 11.8167 9.61299 10.4504 8.41527 9.61299 7.37293 8.44555 9.61299 10.4504 8.44555 9.22945 11.8167 12.2778 10.4504 10.9453 12.2778 12.3807 10.9453 11.136 10.4504 10.9453 9.22945 9.73253 10.9453 11.136 9.73253 9.97942 12.3807 12.1954 11.136 11.0726 12.1954 11.7928 11.0726 10.8087 11.136 11.0726 9.97942 10.0053 11.0726 10.8087 10.0053 9.85024 11.7928 11.2378 10.8087 10.3961 11.2378 10.5857 10.3961 9.88033 10.8087 10.3961 9.85024 9.55443 10.3961 9.88033 9.55443 9.15515 10.5857 9.88033 9.88033 9.29979 9.88033 9.15515 9.29979 8.68488 9.88033 9.29979 9.15515 8.68488 9.29979 8.68488 8.68488 8.17056 9.15515 8.43412 8.68488 8.05872 8.43412 7.73363 8.05872 7.43808 8.68488 8.05872 8.17056 7.6336 8.05872 7.43808 7.6336 7.09033 0.84731 2.68957 0.910261 2.46464 2.68957 4.44344 2.46464 3.95081 0.910261 2.46464 0.952486 2.26754 2.46464 3.95081 2.26754 3.52957 4.44344 6.0258 3.95081 5.3045 6.0258 7.37293 5.3045 6.47505 3.95081 5.3045 3.52957 4.6886 5.3045 6.47505 4.6886 5.70425 7.37293 8.44555 6.47505 7.42915 8.44555 9.22945 7.42915 8.15184 6.47505 7.42915 5.70425 6.54858 7.42915 8.15184 6.54858 7.20709 9.22945 9.73253 8.15184 8.64487 9.73253 9.97942 8.64487 8.92334 8.15184 8.64487 7.20709 7.67789 8.64487 8.92334 7.67789 7.96968 9.97942 10.0053 8.92334 9.01159 10.0053 9.85024 9.01159 8.93903 8.92334 9.01159 7.96968 8.09893 9.01159 8.93903 8.09893 8.08697 9.85024 9.55443 8.93903 8.73663 9.55443 9.15515 8.73663 8.43412 8.93903 8.73663 8.08697 7.95737 9.15515 8.68488 8.43412 8.05872 8.68488 8.17056 8.05872 7.6336 8.43412 8.05872 7.73363 7.43808 8.05872 7.6336 7.43808 7.09033 8.17056 7.6336 7.6336 7.17802 7.6336 7.09033 7.17802 6.70728 7.6336 7.17802 7.09033 6.70728 7.17802 6.70728 6.70728 6.30303 0.952486 2.26754 0.979031 2.09464 2.26754 3.52957 2.09464 3.16867 3.52957 4.6886 3.16867 4.16206 4.6886 5.70425 4.16206 5.04247 4.16206 5.04247 3.71031 4.47292 5.70425 6.54858 5.04247 5.78668 6.54858 7.20709 5.78668 6.38124 5.04247 5.78668 4.47292 5.12667 5.78668 6.38124 5.12667 5.65951 7.20709 7.67789 6.38124 6.82229 7.67789 7.96968 6.82229 7.11429 6.38124 6.82229 5.65951 6.06665 6.82229 7.11429 6.06665 6.3498 7.96968 8.09893 7.11429 7.26815 8.09893 8.08697 7.26815 7.2991 7.11429 7.26815 6.3498 6.51598 3.71031 4.47292 3.32086 3.98078 3.32086 3.98078 2.98315 3.55334 4.47292 5.12667 3.98078 4.55328 5.12667 5.65951 4.55328 5.02776 3.98078 4.55328 3.55334 4.05305 4.55328 5.02776 4.05305 4.47304 0.99376 0.999616 1.94239 1.80766 0.999616 0.998832 1.80766 1.68773 1.94239 1.80766 2.8582 2.58955 1.80766 1.68773 2.58955 2.35563 0.998832 0.993107 1.68773 1.58029 0.993107 0.983733 1.58029 1.48336 1.68773 1.58029 2.35563 2.15053 1.58029 1.48336 2.15053 1.9691 0.983733 0.971695 1.48336 1.39533 0.971695 0.957743 1.39533 1.3148 1.48336 1.39533 1.9691 1.80774 1.39533 1.3148 1.80774 1.66289 2.35563 2.15053 2.98315 2.68825 2.15053 1.9691 2.68825 2.42889 2.98315 2.68825 3.55334 3.17984 2.68825 2.42889 3.17984 2.85135 3.55334 3.17984 4.05305 3.61436 3.17984 2.85135 3.61436 3.22729 4.05305 3.61436 4.47304 3.98386 3.61436 3.22729 3.98386 3.55033 5.65951 5.02776 6.06665 5.39913 5.02776 4.47304 5.39913 4.80834 6.06665 5.39913 6.3498 5.66737 5.39913 4.80834 5.66737 5.05787 4.47304 3.98386 4.80834 4.28371 3.98386 3.55033 4.28371 3.8158 4.80834 4.28371 5.05787 4.51232 4.28371 3.8158 4.51232 4.02244 6.3498 5.66737 6.51598 5.83684 5.66737 5.05787 5.83684 5.22415 6.51598 5.83684 6.57594 5.91507 5.83684 5.22415 5.91507 5.31243 8.08697 7.2991 7.95737 7.22497 7.2991 6.57594 7.22497 6.54303 7.95737 7.22497 7.73363 7.06411 7.22497 6.54303 7.06411 6.43158 6.57594 5.91507 6.54303 5.91185 5.91507 5.31243 5.91185 5.32972 6.54303 5.91185 6.43158 5.83822 5.91185 5.32972 5.83822 5.28452 7.73363 7.06411 7.43808 6.83455 7.06411 6.43158 6.83455 6.25557 7.43808 6.83455 7.09033 6.5527 6.83455 6.25557 6.5527 6.02895 7.09033 6.5527 6.70728 6.23312 6.5527 6.02895 6.23312 5.76415 6.70728 6.23312 6.30303 5.88825 6.23312 5.76415 5.88825 5.4715 8.08697 7.95737 7.2991 7.22497 7.95737 7.73363 7.22497 7.06411 7.2991 7.22497 6.57594 6.54303 7.22497 7.06411 6.54303 6.43158 7.73363 7.43808 7.06411 6.83455 7.43808 7.09033 6.83455 6.5527 7.06411 6.83455 6.43158 6.25557 6.83455 6.5527 6.25557 6.02895 7.09033 6.70728 6.5527 6.23312 6.70728 6.30303 6.23312 5.88825 6.5527 6.23312 6.02895 5.76415 6.23312 5.88825 5.76415 5.4715 0.99376 1.94239 0.999616 1.80766 1.94239 2.8582 1.80766 2.58955 0.999616 1.80766 0.998832 1.68773 1.80766 2.58955 1.68773 2.35563 5.65951 6.06665 5.02776 5.39913 6.06665 6.3498 5.39913 5.66737 5.02776 5.39913 4.47304 4.80834 5.39913 5.66737 4.80834 5.05787 6.3498 6.51598 5.66737 5.83684 6.51598 6.57594 5.83684 5.91507 5.66737 5.83684 5.05787 5.22415 5.83684 5.91507 5.22415 5.31243 6.57594 6.54303 5.91507 5.91185 6.54303 6.43158 5.91185 5.83822 5.91507 5.91185 5.31243 5.32972 5.91185 5.83822 5.32972 5.28452 0.998832 1.68773 0.993107 1.58029 1.68773 2.35563 1.58029 2.15053 0.993107 1.58029 0.983733 1.48336 1.58029 2.15053 1.48336 1.9691 2.35563 2.98315 2.15053 2.68825 2.98315 3.55334 2.68825 3.17984 2.15053 2.68825 1.9691 2.42889 2.68825 3.17984 2.42889 2.85135 3.55334 4.05305 3.17984 3.61436 4.05305 4.47304 3.61436 3.98386 3.17984 3.61436 2.85135 3.22729 3.61436 3.98386 3.22729 3.55033 4.47304 4.80834 3.98386 4.28371 4.80834 5.05787 4.28371 4.51232 3.98386 4.28371 3.55033 3.8158 4.28371 4.51232 3.8158 4.02244 0.983733 1.48336 0.971695 1.39533 1.48336 1.9691 1.39533 1.80774 0.971695 1.39533 0.957743 1.3148 1.39533 1.80774 1.3148 1.66289 -1.22465e-15 0.794991 0.794991 5.61347 0.794991 -0.144169 5.61347 -2.27845 0.794991 5.61347 -0.144169 -2.27845 5.61347 -2.27845 -2.27845 -8.86401 -0.144169 0.138694 -2.27845 -2.55782 0.138694 -0.923149 -2.55782 3.28442 -2.27845 -2.55782 -8.86401 6.2336 -2.55782 3.28442 6.2336 7.16273 -0.144169 -2.27845 0.138694 -2.55782 -2.27845 -8.86401 -2.55782 6.2336 0.138694 -2.55782 -0.923149 3.28442 -2.55782 6.2336 3.28442 7.16273 -8.86401 6.2336 6.2336 12.3232 6.2336 7.16273 12.3232 4.69798 6.2336 12.3232 7.16273 4.69798 12.3232 4.69798 4.69798 -3.35615 -0.923149 0.324261 3.28442 0.116377 0.324261 0.994065 0.116377 -2.88828 3.28442 0.116377 7.16273 -1.42951 0.116377 -2.88828 -1.42951 -6.61073 0.994065 0.716427 -2.88828 -3.5181 0.716427 0.0929711 -3.5181 -2.78567 -2.88828 -3.5181 -6.61073 -6.96096 -3.5181 -2.78567 -6.96096 -4.89407 7.16273 -1.42951 4.69798 -5.37003 -1.42951 -6.61073 -5.37003 -9.7797 4.69798 -5.37003 -3.35615 -9.93412 -5.37003 -9.7797 -9.93412 -11.4794 -6.61073 -6.96096 -9.7797 -8.9274 -6.96096 -4.89407 -8.9274 -5.63881 -9.7797 -8.9274 -11.4794 -9.00807 -8.9274 -5.63881 -9.00807 -4.81341 0.0929711 -0.465858 -2.78567 -1.65723 -0.465858 -0.822804 -1.65723 -0.593479 -2.78567 -1.65723 -4.89407 -2.29613 -1.65723 -0.593479 -2.29613 -0.0235518 -0.822804 -0.980727 -0.593479 0.258981 -0.980727 -0.988308 0.258981 0.890349 -0.593479 0.258981 -0.0235518 1.68484 0.258981 0.890349 1.68484 2.85557 -4.89407 -2.29613 -5.63881 -1.97187 -2.29613 -0.0235518 -1.97187 1.132 -5.63881 -1.97187 -4.81341 -0.570541 -1.97187 1.132 -0.570541 2.92963 -0.0235518 1.68484 1.132 3.42121 1.68484 2.85557 3.42121 4.95336 1.132 3.42121 2.92963 5.48379 3.42121 4.95336 5.48379 7.17134 -0.988308 -0.897701 0.890349 1.3363 -0.897701 -0.750708 1.3363 1.64006 0.890349 1.3363 2.85557 3.59726 1.3363 1.64006 3.59726 4.02431 -0.750708 -0.576874 1.64006 1.83943 -0.576874 -0.395519 1.83943 1.96391 1.64006 1.83943 4.02431 4.23183 1.83943 1.96391 4.23183 4.2916 2.85557 3.59726 4.95336 5.88434 3.59726 4.02431 5.88434 6.37548 4.95336 5.88434 7.17134 8.1676 5.88434 6.37548 8.1676 8.65411 4.02431 4.23183 6.37548 6.56134 4.23183 4.2916 6.56134 6.54403 6.37548 6.56134 8.65411 8.78459 6.56134 6.54403 8.78459 8.67762 -0.395519 -0.218473 1.96391 2.03537 -0.218473 -0.052445 2.03537 2.0696 1.96391 2.03537 4.2916 4.25508 2.03537 2.0696 4.25508 4.15811 -0.052445 0.0991969 2.0696 2.07789 0.0991969 0.235186 2.07789 2.06823 2.0696 2.07789 4.15811 4.02513 2.07789 2.06823 4.02513 3.87257 4.2916 4.25508 6.54403 6.39712 4.25508 4.15811 6.39712 6.17189 6.54403 6.39712 8.67762 8.41985 6.39712 6.17189 8.41985 8.07239 4.15811 4.02513 6.17189 5.90322 4.02513 3.87257 5.90322 5.61437 6.17189 5.90322 8.07239 7.6772 5.90322 5.61437 7.6772 7.26238 0.235186 0.355525 2.06823 2.04627 0.355525 0.460937 2.04627 2.01604 2.06823 2.04627 3.87257 3.71126 2.04627 2.01604 3.71126 3.54832 3.87257 3.71126 5.61437 5.3205 3.71126 3.54832 5.3205 5.0312 5.61437 5.3205 7.26238 6.8463 5.3205 5.0312 6.8463 6.44065 0.979031 0.98767 1.5394 1.50419 0.98767 0.99376 1.50419 1.47012 1.5394 1.50419 2.09464 2.01613 1.50419 1.47012 2.01613 1.94239 2.09464 2.01613 2.63941 2.51879 2.01613 1.94239 2.51879 2.40639 2.63941 2.51879 3.16867 3.00767 2.51879 2.40639 3.00767 2.8582 -0.923149 3.28442 0.324261 0.116377 3.28442 7.16273 0.116377 -1.42951 0.324261 0.116377 0.994065 -2.88828 0.116377 -1.42951 -2.88828 -6.61073 7.16273 4.69798 -1.42951 -5.37003 4.69798 -3.35615 -5.37003 -9.93412 -1.42951 -5.37003 -6.61073 -9.7797 -5.37003 -9.93412 -9.7797 -11.4794 0.994065 -2.88828 0.716427 -3.5181 -2.88828 -6.61073 -3.5181 -6.96096 0.716427 -3.5181 0.0929711 -2.78567 -3.5181 -6.96096 -2.78567 -4.89407 -6.61073 -9.7797 -6.96096 -8.9274 -9.7797 -11.4794 -8.9274 -9.00807 -6.96096 -8.9274 -4.89407 -5.63881 -8.9274 -9.00807 -5.63881 -4.81341 -3.35615 -9.93412 -9.93412 -12.1332 -9.93412 -11.4794 -12.1332 -10.8911 -9.93412 -12.1332 -11.4794 -10.8911 -12.1332 -10.8911 -10.8911 -8.08185 -11.4794 -9.00807 -10.8911 -7.19011 -9.00807 -4.81341 -7.19011 -2.59211 -10.8911 -7.19011 -8.08185 -3.91375 -7.19011 -2.59211 -3.91375 0.575131 -11.4794 -10.8911 -9.00807 -7.19011 -10.8911 -8.08185 -7.19011 -3.91375 -9.00807 -7.19011 -4.81341 -2.59211 -7.19011 -3.91375 -2.59211 0.575131 -8.08185 -3.91375 -3.91375 0.0982887 -3.91375 0.575131 0.0982887 4.12867 -3.91375 0.0982887 0.575131 4.12867 0.0982887 4.12867 4.12867 7.56284 -4.81341 -0.570541 -2.59211 1.74244 -0.570541 2.92963 1.74244 5.24651 -2.59211 1.74244 0.575131 4.62159 1.74244 5.24651 4.62159 7.84513 2.92963 5.48379 5.24651 7.78304 5.48379 7.17134 7.78304 9.44006 5.24651 7.78304 7.84513 10.1612 7.78304 9.44006 10.1612 11.6531 0.575131 4.62159 4.12867 7.66637 4.62159 7.84513 7.66637 10.4549 4.12867 7.66637 7.56284 10.5256 7.66637 10.4549 10.5256 12.8391 7.84513 10.1612 10.4549 12.4409 10.1612 11.6531 12.4409 13.6951 10.4549 12.4409 12.8391 14.4676 12.4409 13.6951 14.4676 15.4663 7.17134 8.1676 9.44006 10.389 8.1676 8.65411 10.389 10.809 9.44006 10.389 11.6531 12.4732 10.389 10.809 12.4732 12.7836 8.65411 8.78459 10.809 10.8554 8.78459 8.67762 10.8554 10.6503 10.809 10.8554 12.7836 12.7284 10.8554 10.6503 12.7284 12.4243 11.6531 12.4732 13.6951 14.3435 12.4732 12.7836 14.3435 14.5245 13.6951 14.3435 15.4663 15.9358 14.3435 14.5245 15.9358 15.9895 12.7836 12.7284 14.5245 14.3644 12.7284 12.4243 14.3644 13.9687 14.5245 14.3644 15.9895 15.7343 14.3644 13.9687 15.7343 15.2622 8.67762 8.41985 10.6503 10.2851 8.41985 8.07239 10.2851 9.82524 10.6503 10.2851 12.4243 11.9603 10.2851 9.82524 11.9603 11.4017 8.07239 7.6772 9.82524 9.31628 7.6772 7.26238 9.31628 8.78919 9.82524 9.31628 11.4017 10.795 9.31628 8.78919 10.795 10.1722 12.4243 11.9603 13.9687 13.4199 11.9603 11.4017 13.4199 12.78 13.9687 13.4199 15.2622 14.6471 13.4199 12.78 14.6471 13.9461 11.4017 10.795 12.78 12.0943 10.795 10.1722 12.0943 11.3942 12.78 12.0943 13.9461 13.2017 12.0943 11.3942 13.2017 12.4443 7.26238 6.8463 8.78919 8.26436 6.8463 6.44065 8.26436 7.7547 8.78919 8.2