# vtk DataFile Version 3.0
#This file was generated by the deal.II library on 2020/5/26 at 23:29:01
ASCII
DATASET UNSTRUCTURED_GRID

POINTS 3724 double
0.625 0 0
0.6875 0 0
0.625 0.0625 0
0.6875 0.0625 0
0.6875 0 0
0.75 0 0
0.6875 0.0625 0
0.75 0.0625 0
0.75 0 0
0.8125 0 0
0.75 0.0625 0
0.8125 0.0625 0
0.8125 0 0
0.875 0 0
0.8125 0.0625 0
0.875 0.0625 0
0.875 0 0
0.9375 0 0
0.875 0.0625 0
0.9375 0.0625 0
0.9375 0 0
1 0 0
0.9375 0.0625 0
1 0.0625 0
0.625 0.0625 0
0.6875 0.0625 0
0.625 0.125 0
0.6875 0.125 0
0.6875 0.0625 0
0.75 0.0625 0
0.6875 0.125 0
0.75 0.125 0
0.75 0.0625 0
0.8125 0.0625 0
0.75 0.125 0
0.8125 0.125 0
0.8125 0.0625 0
0.875 0.0625 0
0.8125 0.125 0
0.875 0.125 0
0.875 0.0625 0
0.9375 0.0625 0
0.875 0.125 0
0.9375 0.125 0
0.9375 0.0625 0
1 0.0625 0
0.9375 0.125 0
1 0.125 0
0.625 0.125 0
0.6875 0.125 0
0.625 0.1875 0
0.6875 0.1875 0
0.6875 0.125 0
0.75 0.125 0
0.6875 0.1875 0
0.75 0.1875 0
0.75 0.125 0
0.8125 0.125 0
0.75 0.1875 0
0.8125 0.1875 0
0.8125 0.125 0
0.875 0.125 0
0.8125 0.1875 0
0.875 0.1875 0
0.875 0.125 0
0.9375 0.125 0
0.875 0.1875 0
0.9375 0.1875 0
0.9375 0.125 0
1 0.125 0
0.9375 0.1875 0
1 0.1875 0
0.5625 0.1875 0
0.625 0.1875 0
0.5625 0.25 0
0.625 0.25 0
0.625 0.1875 0
0.6875 0.1875 0
0.625 0.25 0
0.6875 0.25 0
0.6875 0.1875 0
0.75 0.1875 0
0.6875 0.25 0
0.75 0.25 0
0.75 0.1875 0
0.8125 0.1875 0
0.75 0.25 0
0.8125 0.25 0
0.8125 0.1875 0
0.875 0.1875 0
0.8125 0.25 0
0.875 0.25 0
0.875 0.1875 0
0.9375 0.1875 0
0.875 0.25 0
0.9375 0.25 0
0.9375 0.1875 0
1 0.1875 0
0.9375 0.25 0
1 0.25 0
0.75 0.25 0
0.8125 0.25 0
0.75 0.3125 0
0.8125 0.3125 0
0.8125 0.25 0
0.875 0.25 0
0.8125 0.3125 0
0.875 0.3125 0
0.875 0.25 0
0.9375 0.25 0
0.875 0.3125 0
0.9375 0.3125 0
0.9375 0.25 0
1 0.25 0
0.9375 0.3125 0
1 0.3125 0
0.3125 0.3125 0
0.375 0.3125 0
0.3125 0.375 0
0.375 0.375 0
0.75 0.3125 0
0.8125 0.3125 0
0.75 0.375 0
0.8125 0.375 0
0.8125 0.3125 0
0.875 0.3125 0
0.8125 0.375 0
0.875 0.375 0
0.875 0.3125 0
0.9375 0.3125 0
0.875 0.375 0
0.9375 0.375 0
0.9375 0.3125 0
1 0.3125 0
0.9375 0.375 0
1 0.375 0
0.75 0.375 0
0.8125 0.375 0
0.75 0.4375 0
0.8125 0.4375 0
0.8125 0.375 0
0.875 0.375 0
0.8125 0.4375 0
0.875 0.4375 0
0.875 0.375 0
0.9375 0.375 0
0.875 0.4375 0
0.9375 0.4375 0
0.9375 0.375 0
1 0.375 0
0.9375 0.4375 0
1 0.4375 0
0.75 0.4375 0
0.8125 0.4375 0
0.75 0.5 0
0.8125 0.5 0
0.8125 0.4375 0
0.875 0.4375 0
0.8125 0.5 0
0.875 0.5 0
0.875 0.4375 0
0.9375 0.4375 0
0.875 0.5 0
0.9375 0.5 0
0.9375 0.4375 0
1 0.4375 0
0.9375 0.5 0
1 0.5 0
0.6875 0.5 0
0.75 0.5 0
0.6875 0.5625 0
0.75 0.5625 0
0.75 0.5 0
0.8125 0.5 0
0.75 0.5625 0
0.8125 0.5625 0
0.8125 0.5 0
0.875 0.5 0
0.8125 0.5625 0
0.875 0.5625 0
0.875 0.5 0
0.9375 0.5 0
0.875 0.5625 0
0.9375 0.5625 0
0.9375 0.5 0
1 0.5 0
0.9375 0.5625 0
1 0.5625 0
0.1875 0.5625 0
0.25 0.5625 0
0.1875 0.625 0
0.25 0.625 0
0.625 0.5625 0
0.6875 0.5625 0
0.625 0.625 0
0.6875 0.625 0
0.6875 0.5625 0
0.75 0.5625 0
0.6875 0.625 0
0.75 0.625 0
0.75 0.5625 0
0.8125 0.5625 0
0.75 0.625 0
0.8125 0.625 0
0.8125 0.5625 0
0.875 0.5625 0
0.8125 0.625 0
0.875 0.625 0
0.875 0.5625 0
0.9375 0.5625 0
0.875 0.625 0
0.9375 0.625 0
0.9375 0.5625 0
1 0.5625 0
0.9375 0.625 0
1 0.625 0
0 0.625 0
0.0625 0.625 0
0 0.6875 0
0.0625 0.6875 0
0.0625 0.625 0
0.125 0.625 0
0.0625 0.6875 0
0.125 0.6875 0
0.125 0.625 0
0.1875 0.625 0
0.125 0.6875 0
0.1875 0.6875 0
0.1875 0.625 0
0.25 0.625 0
0.1875 0.6875 0
0.25 0.6875 0
0.5625 0.625 0
0.625 0.625 0
0.5625 0.6875 0
0.625 0.6875 0
0.625 0.625 0
0.6875 0.625 0
0.625 0.6875 0
0.6875 0.6875 0
0.6875 0.625 0
0.75 0.625 0
0.6875 0.6875 0
0.75 0.6875 0
0.75 0.625 0
0.8125 0.625 0
0.75 0.6875 0
0.8125 0.6875 0
0.8125 0.625 0
0.875 0.625 0
0.8125 0.6875 0
0.875 0.6875 0
0.875 0.625 0
0.9375 0.625 0
0.875 0.6875 0
0.9375 0.6875 0
0.9375 0.625 0
1 0.625 0
0.9375 0.6875 0
1 0.6875 0
0 0.6875 0
0.0625 0.6875 0
0 0.75 0
0.0625 0.75 0
0.0625 0.6875 0
0.125 0.6875 0
0.0625 0.75 0
0.125 0.75 0
0.125 0.6875 0
0.1875 0.6875 0
0.125 0.75 0
0.1875 0.75 0
0.1875 0.6875 0
0.25 0.6875 0
0.1875 0.75 0
0.25 0.75 0
0.5 0.6875 0
0.5625 0.6875 0
0.5 0.75 0
0.5625 0.75 0
0.5625 0.6875 0
0.625 0.6875 0
0.5625 0.75 0
0.625 0.75 0
0.625 0.6875 0
0.6875 0.6875 0
0.625 0.75 0
0.6875 0.75 0
0.6875 0.6875 0
0.75 0.6875 0
0.6875 0.75 0
0.75 0.75 0
0.75 0.6875 0
0.8125 0.6875 0
0.75 0.75 0
0.8125 0.75 0
0.8125 0.6875 0
0.875 0.6875 0
0.8125 0.75 0
0.875 0.75 0
0.875 0.6875 0
0.9375 0.6875 0
0.875 0.75 0
0.9375 0.75 0
0.9375 0.6875 0
1 0.6875 0
0.9375 0.75 0
1 0.75 0
0 0.75 0
0.0625 0.75 0
0 0.8125 0
0.0625 0.8125 0
0.0625 0.75 0
0.125 0.75 0
0.0625 0.8125 0
0.125 0.8125 0
0.125 0.75 0
0.1875 0.75 0
0.125 0.8125 0
0.1875 0.8125 0
0.1875 0.75 0
0.25 0.75 0
0.1875 0.8125 0
0.25 0.8125 0
0.25 0.75 0
0.3125 0.75 0
0.25 0.8125 0
0.3125 0.8125 0
0.3125 0.75 0
0.375 0.75 0
0.3125 0.8125 0
0.375 0.8125 0
0.375 0.75 0
0.4375 0.75 0
0.375 0.8125 0
0.4375 0.8125 0
0.4375 0.75 0
0.5 0.75 0
0.4375 0.8125 0
0.5 0.8125 0
0.5 0.75 0
0.5625 0.75 0
0.5 0.8125 0
0.5625 0.8125 0
0.5625 0.75 0
0.625 0.75 0
0.5625 0.8125 0
0.625 0.8125 0
0.625 0.75 0
0.6875 0.75 0
0.625 0.8125 0
0.6875 0.8125 0
0.6875 0.75 0
0.75 0.75 0
0.6875 0.8125 0
0.75 0.8125 0
0.75 0.75 0
0.8125 0.75 0
0.75 0.8125 0
0.8125 0.8125 0
0.8125 0.75 0
0.875 0.75 0
0.8125 0.8125 0
0.875 0.8125 0
0.875 0.75 0
0.9375 0.75 0
0.875 0.8125 0
0.9375 0.8125 0
0.9375 0.75 0
1 0.75 0
0.9375 0.8125 0
1 0.8125 0
0 0.8125 0
0.0625 0.8125 0
0 0.875 0
0.0625 0.875 0
0.0625 0.8125 0
0.125 0.8125 0
0.0625 0.875 0
0.125 0.875 0
0.125 0.8125 0
0.1875 0.8125 0
0.125 0.875 0
0.1875 0.875 0
0.1875 0.8125 0
0.25 0.8125 0
0.1875 0.875 0
0.25 0.875 0
0.25 0.8125 0
0.3125 0.8125 0
0.25 0.875 0
0.3125 0.875 0
0.3125 0.8125 0
0.375 0.8125 0
0.3125 0.875 0
0.375 0.875 0
0.375 0.8125 0
0.4375 0.8125 0
0.375 0.875 0
0.4375 0.875 0
0.4375 0.8125 0
0.5 0.8125 0
0.4375 0.875 0
0.5 0.875 0
0.5 0.8125 0
0.5625 0.8125 0
0.5 0.875 0
0.5625 0.875 0
0.5625 0.8125 0
0.625 0.8125 0
0.5625 0.875 0
0.625 0.875 0
0.625 0.8125 0
0.6875 0.8125 0
0.625 0.875 0
0.6875 0.875 0
0.6875 0.8125 0
0.75 0.8125 0
0.6875 0.875 0
0.75 0.875 0
0.75 0.8125 0
0.8125 0.8125 0
0.75 0.875 0
0.8125 0.875 0
0.8125 0.8125 0
0.875 0.8125 0
0.8125 0.875 0
0.875 0.875 0
0.875 0.8125 0
0.9375 0.8125 0
0.875 0.875 0
0.9375 0.875 0
0.9375 0.8125 0
1 0.8125 0
0.9375 0.875 0
1 0.875 0
0 0.875 0
0.0625 0.875 0
0 0.9375 0
0.0625 0.9375 0
0.0625 0.875 0
0.125 0.875 0
0.0625 0.9375 0
0.125 0.9375 0
0.125 0.875 0
0.1875 0.875 0
0.125 0.9375 0
0.1875 0.9375 0
0.1875 0.875 0
0.25 0.875 0
0.1875 0.9375 0
0.25 0.9375 0
0.25 0.875 0
0.3125 0.875 0
0.25 0.9375 0
0.3125 0.9375 0
0.3125 0.875 0
0.375 0.875 0
0.3125 0.9375 0
0.375 0.9375 0
0.375 0.875 0
0.4375 0.875 0
0.375 0.9375 0
0.4375 0.9375 0
0.4375 0.875 0
0.5 0.875 0
0.4375 0.9375 0
0.5 0.9375 0
0.5 0.875 0
0.5625 0.875 0
0.5 0.9375 0
0.5625 0.9375 0
0.5625 0.875 0
0.625 0.875 0
0.5625 0.9375 0
0.625 0.9375 0
0.625 0.875 0
0.6875 0.875 0
0.625 0.9375 0
0.6875 0.9375 0
0.6875 0.875 0
0.75 0.875 0
0.6875 0.9375 0
0.75 0.9375 0
0.75 0.875 0
0.8125 0.875 0
0.75 0.9375 0
0.8125 0.9375 0
0.8125 0.875 0
0.875 0.875 0
0.8125 0.9375 0
0.875 0.9375 0
0.875 0.875 0
0.9375 0.875 0
0.875 0.9375 0
0.9375 0.9375 0
0.9375 0.875 0
1 0.875 0
0.9375 0.9375 0
1 0.9375 0
0 0.9375 0
0.0625 0.9375 0
0 1 0
0.0625 1 0
0.0625 0.9375 0
0.125 0.9375 0
0.0625 1 0
0.125 1 0
0.125 0.9375 0
0.1875 0.9375 0
0.125 1 0
0.1875 1 0
0.1875 0.9375 0
0.25 0.9375 0
0.1875 1 0
0.25 1 0
0.25 0.9375 0
0.3125 0.9375 0
0.25 1 0
0.3125 1 0
0.3125 0.9375 0
0.375 0.9375 0
0.3125 1 0
0.375 1 0
0.375 0.9375 0
0.4375 0.9375 0
0.375 1 0
0.4375 1 0
0.4375 0.9375 0
0.5 0.9375 0
0.4375 1 0
0.5 1 0
0.5 0.9375 0
0.5625 0.9375 0
0.5 1 0
0.5625 1 0
0.5625 0.9375 0
0.625 0.9375 0
0.5625 1 0
0.625 1 0
0.625 0.9375 0
0.6875 0.9375 0
0.625 1 0
0.6875 1 0
0.6875 0.9375 0
0.75 0.9375 0
0.6875 1 0
0.75 1 0
0.75 0.9375 0
0.8125 0.9375 0
0.75 1 0
0.8125 1 0
0.8125 0.9375 0
0.875 0.9375 0
0.8125 1 0
0.875 1 0
0.875 0.9375 0
0.9375 0.9375 0
0.875 1 0
0.9375 1 0
0.9375 0.9375 0
1 0.9375 0
0.9375 1 0
1 1 0
0 0 0
0.03125 0 0
0 0.03125 0
0.03125 0.03125 0
0.40625 0 0
0.4375 0 0
0.40625 0.03125 0
0.4375 0.03125 0
0.40625 0.03125 0
0.4375 0.03125 0
0.40625 0.0625 0
0.4375 0.0625 0
0.4375 0 0
0.46875 0 0
0.4375 0.03125 0
0.46875 0.03125 0
0.46875 0 0
0.5 0 0
0.46875 0.03125 0
0.5 0.03125 0
0.4375 0.03125 0
0.46875 0.03125 0
0.4375 0.0625 0
0.46875 0.0625 0
0.46875 0.03125 0
0.5 0.03125 0
0.46875 0.0625 0
0.5 0.0625 0
0.5 0 0
0.53125 0 0
0.5 0.03125 0
0.53125 0.03125 0
0.53125 0 0
0.5625 0 0
0.53125 0.03125 0
0.5625 0.03125 0
0.5 0.03125 0
0.53125 0.03125 0
0.5 0.0625 0
0.53125 0.0625 0
0.53125 0.03125 0
0.5625 0.03125 0
0.53125 0.0625 0
0.5625 0.0625 0
0.5625 0 0
0.59375 0 0
0.5625 0.03125 0
0.59375 0.03125 0
0.59375 0 0
0.625 0 0
0.59375 0.03125 0
0.625 0.03125 0
0.5625 0.03125 0
0.59375 0.03125 0
0.5625 0.0625 0
0.59375 0.0625 0
0.59375 0.03125 0
0.625 0.03125 0
0.59375 0.0625 0
0.625 0.0625 0
0.09375 0.09375 0
0.125 0.09375 0
0.09375 0.125 0
0.125 0.125 0
0.125 0.0625 0
0.15625 0.0625 0
0.125 0.09375 0
0.15625 0.09375 0
0.40625 0.0625 0
0.4375 0.0625 0
0.40625 0.09375 0
0.4375 0.09375 0
0.375 0.09375 0
0.40625 0.09375 0
0.375 0.125 0
0.40625 0.125 0
0.40625 0.09375 0
0.4375 0.09375 0
0.40625 0.125 0
0.4375 0.125 0
0.4375 0.0625 0
0.46875 0.0625 0
0.4375 0.09375 0
0.46875 0.09375 0
0.46875 0.0625 0
0.5 0.0625 0
0.46875 0.09375 0
0.5 0.09375 0
0.4375 0.09375 0
0.46875 0.09375 0
0.4375 0.125 0
0.46875 0.125 0
0.46875 0.09375 0
0.5 0.09375 0
0.46875 0.125 0
0.5 0.125 0
0.5 0.0625 0
0.53125 0.0625 0
0.5 0.09375 0
0.53125 0.09375 0
0.53125 0.0625 0
0.5625 0.0625 0
0.53125 0.09375 0
0.5625 0.09375 0
0.5 0.09375 0
0.53125 0.09375 0
0.5 0.125 0
0.53125 0.125 0
0.53125 0.09375 0
0.5625 0.09375 0
0.53125 0.125 0
0.5625 0.125 0
0.5625 0.0625 0
0.59375 0.0625 0
0.5625 0.09375 0
0.59375 0.09375 0
0.59375 0.0625 0
0.625 0.0625 0
0.59375 0.09375 0
0.625 0.09375 0
0.5625 0.09375 0
0.59375 0.09375 0
0.5625 0.125 0
0.59375 0.125 0
0.59375 0.09375 0
[...]
POINT_DATA 3724
SCALARS solution double 1
LOOKUP_TABLE default
0.998832 0.983733 1.09303 1.05148 0.983733 0.957743 1.05148 1.00573 0.957743 0.926262 1.00573 0.958863 0.926262 0.892447 0.958863 0.912462 0.892447 0.858142 0.912462 0.86724 0.858142 0.824405 0.86724 0.823369 1.09303 1.05148 1.17521 1.11008 1.05148 1.00573 1.11008 1.04668 1.00573 0.958863 1.04668 0.986034 0.958863 0.912462 0.986034 0.928335 0.912462 0.86724 0.928335 0.873287 0.86724 0.823369 0.873287 0.820278 1.17521 1.11008 1.23645 1.15375 1.11008 1.04668 1.15375 1.07684 1.04668 0.986034 1.07684 1.0054 0.986034 0.928335 1.0054 0.938676 0.928335 0.873287 0.938676 0.875668 0.873287 0.820278 0.875668 0.815189 1.32429 1.23645 1.37251 1.27202 1.23645 1.15375 1.27202 1.17916 1.15375 1.07684 1.17916 1.09392 1.07684 1.0054 1.09392 1.01546 1.0054 0.938676 1.01546 0.942606 0.938676 0.875668 0.942606 0.874012 0.875668 0.815189 0.874012 0.808195 1.09392 1.01546 1.09731 1.01574 1.01546 0.942606 1.01574 0.939837 0.942606 0.874012 0.939837 0.868239 0.874012 0.808195 0.868239 0.799424 1.75169 1.69513 1.69513 1.64801 1.09731 1.01574 1.08784 1.00668 1.01574 0.939837 1.00668 0.930638 0.939837 0.868239 0.930638 0.858539 0.868239 0.799424 0.858539 0.789031 1.08784 1.00668 1.06734 0.989436 1.00668 0.930638 0.989436 0.915704 0.930638 0.858539 0.915704 0.845317 0.858539 0.789031 0.845317 0.777196 1.06734 0.989436 1.03813 0.965502 0.989436 0.915704 0.965502 0.89599 0.915704 0.845317 0.89599 0.829114 0.845317 0.777196 0.829114 0.764114 1.11391 1.03813 1.07047 1.00256 1.03813 0.965502 1.00256 0.936497 0.965502 0.89599 0.936497 0.872543 0.89599 0.829114 0.872543 0.810527 0.829114 0.764114 0.810527 0.749991 1.32429 1.37251 1.23645 1.27202 1.13933 1.07047 1.08183 1.02239 1.07047 1.00256 1.02239 0.962755 1.00256 0.936497 0.962755 0.90393 0.936497 0.872543 0.90393 0.846373 0.872543 0.810527 0.846373 0.790142 0.810527 0.749991 0.790142 0.73503 0.998832 1.09303 0.983733 1.05148 1.09303 1.17521 1.05148 1.11008 1.17521 1.23645 1.11008 1.15375 1.23645 1.27202 1.15375 1.17916 1.13933 1.08183 1.07047 1.02239 1.08183 1.02239 1.02239 0.97186 1.02239 0.962755 0.97186 0.920426 0.962755 0.90393 0.920426 0.869083 0.90393 0.846373 0.869083 0.81837 0.846373 0.790142 0.81837 0.768494 0.790142 0.73503 0.768494 0.719429 0.983733 1.05148 0.957743 1.00573 1.05148 1.11008 1.00573 1.04668 1.11008 1.15375 1.04668 1.07684 1.15375 1.17916 1.07684 1.09392 1.11391 1.07047 1.03813 1.00256 1.07047 1.02239 1.00256 0.962755 1.02239 0.97186 0.962755 0.920426 0.97186 0.920426 0.920426 0.876868 0.920426 0.869083 0.876868 0.832964 0.869083 0.81837 0.832964 0.789259 0.81837 0.768494 0.789259 0.746032 0.768494 0.719429 0.746032 0.703375 0.957743 1.00573 0.926262 0.958863 1.00573 1.04668 0.958863 0.986034 1.04668 1.07684 0.986034 1.0054 1.07684 1.09392 1.0054 1.01546 1.09392 1.09731 1.01546 1.01574 1.09731 1.08784 1.01574 1.00668 1.08784 1.06734 1.00668 0.989436 1.06734 1.03813 0.989436 0.965502 1.03813 1.00256 0.965502 0.936497 1.00256 0.962755 0.936497 0.90393 0.962755 0.920426 0.90393 0.869083 0.920426 0.876868 0.869083 0.832964 0.876868 0.832964 0.832964 0.796305 0.832964 0.789259 0.796305 0.759593 0.789259 0.746032 0.759593 0.72312 0.746032 0.703375 0.72312 0.687037 0.926262 0.958863 0.892447 0.912462 0.958863 0.986034 0.912462 0.928335 0.986034 1.0054 0.928335 0.938676 1.0054 1.01546 0.938676 0.942606 1.01546 1.01574 0.942606 0.939837 1.01574 1.00668 0.939837 0.930638 1.00668 0.989436 0.930638 0.915704 0.989436 0.965502 0.915704 0.89599 0.965502 0.936497 0.89599 0.872543 0.936497 0.90393 0.872543 0.846373 0.90393 0.869083 0.846373 0.81837 0.869083 0.832964 0.81837 0.789259 0.832964 0.796305 0.789259 0.759593 0.796305 0.759593 0.759593 0.729764 0.759593 0.72312 0.729764 0.700035 0.72312 0.687037 0.700035 0.670565 0.892447 0.912462 0.858142 0.86724 0.912462 0.928335 0.86724 0.873287 0.928335 0.938676 0.873287 0.875668 0.938676 0.942606 0.875668 0.874012 0.942606 0.939837 0.874012 0.868239 0.939837 0.930638 0.868239 0.858539 0.930638 0.915704 0.858539 0.845317 0.915704 0.89599 0.845317 0.829114 0.89599 0.872543 0.829114 0.810527 0.872543 0.846373 0.810527 0.790142 0.846373 0.81837 0.790142 0.768494 0.81837 0.789259 0.768494 0.746032 0.789259 0.759593 0.746032 0.72312 0.759593 0.729764 0.72312 0.700035 0.729764 0.700035 0.700035 0.676977 0.700035 0.670565 0.676977 0.654091 0.858142 0.86724 0.824405 0.823369 0.86724 0.873287 0.823369 0.820278 0.873287 0.875668 0.820278 0.815189 0.875668 0.874012 0.815189 0.808195 0.874012 0.868239 0.808195 0.799424 0.868239 0.858539 0.799424 0.789031 0.858539 0.845317 0.789031 0.777196 0.845317 0.829114 0.777196 0.764114 0.829114 0.810527 0.764114 0.749991 0.810527 0.790142 0.749991 0.73503 0.790142 0.768494 0.73503 0.719429 0.768494 0.746032 0.719429 0.703375 0.746032 0.72312 0.703375 0.687037 0.72312 0.700035 0.687037 0.670565 0.700035 0.676977 0.670565 0.654091 0.676977 0.654091 0.654091 0.637725 -1.22465e-15 -0.144169 -0.144169 -0.477155 0.757131 0.84731 0.91324 0.97808 0.91324 0.97808 1.06858 1.10746 0.84731 0.910261 0.97808 1.02011 0.910261 0.952486 1.02011 1.04506 0.97808 1.02011 1.10746 1.12826 1.02011 1.04506 1.12826 1.1358 0.952486 0.979031 1.04506 1.0573 0.979031 0.99376 1.0573 1.06011 1.04506 1.0573 1.1358 1.1337 1.0573 1.06011 1.1337 1.12463 0.99376 0.999616 1.06011 1.05597 0.999616 0.998832 1.05597 1.04675 1.06011 1.05597 1.12463 1.11058 1.05597 1.04675 1.11058 1.09303 -0.636508 -0.687657 -0.687657 -0.366805 -0.777555 -0.719338 -0.687657 -0.379351 1.06858 1.10746 1.21467 1.22904 1.18129 1.21467 1.33717 1.34443 1.21467 1.22904 1.34443 1.3374 1.10746 1.12826 1.22904 1.22981 1.12826 1.1358 1.22981 1.22095 1.22904 1.22981 1.3374 1.32062 1.22981 1.22095 1.32062 1.29729 1.1358 1.1337 1.22095 1.20534 1.1337 1.12463 1.20534 1.18507 1.22095 1.20534 1.29729 1.2697 1.20534 1.18507 1.2697 1.23946 1.12463 1.11058 1.18507 1.16168 1.11058 1.09303 1.16168 1.13626 1.18507 1.16168 1.23946 1.20769 1.16168 1.13626 1.20769 1.17521 -0.777555 -0.687657 -0.719338 -0.379351 1.30926 1.33717 1.46392 1.46653 1.43726 1.46392 1.57745 1.58193 1.46392 1.46653 1.58193 1.56627 1.33717 1.34443 1.46653 1.45292 1.34443 1.3374 1.45292 1.42865 1.46653 1.45292 1.56627 1.53751 1.45292 1.42865 1.53751 1.50057 1.3374 1.32062 1.42865 1.39758 1.32062 1.29729 1.39758 1.36237 1.42865 1.39758 1.50057 1.45885 1.39758 1.36237 1.45885 1.41462 1.29729 1.2697 1.36237 1.32483 1.2697 1.23946 1.32483 1.28622 1.36237 1.32483 1.41462 1.36943 1.32483 1.28622 1.36943 1.32429 1.23946 1.20769 1.28622 1.24737 1.20769 1.17521 1.24737 1.20885 1.28622 1.24737 1.32429 1.27982 1.24737 1.20885 1.27982 1.23645 1.65719 1.67343 1.72439 1.72997 1.57745 1.58193 1.67343 1.66361 1.58193 1.56627 1.66361 1.63628 1.67343 1.66361 1.72997 1.7122 1.66361 1.63628 1.7122 1.67865 1.56627 1.53751 1.63628 1.59777 1.53751 1.50057 1.59777 1.55257 1.63628 1.59777 1.67865 1.63501 1.59777 1.55257 1.63501 1.5854 1.50057 1.45885 1.55257 1.50376 1.45885 1.41462 1.50376 1.4534 1.55257 1.50376 1.5854 1.53269 1.50376 1.4534 1.53269 1.47885 1.41462 1.36943 1.4534 1.40288 1.36943 1.32429 1.40288 1.35308 1.4534 1.40288 1.47885 1.42517 1.40288 1.35308 1.42517 1.37251 1.65719 1.72439 1.67343 1.72997 1.68597 1.72439 1.72439 1.75359 1.72439 1.72997 1.75359 1.75365 1.72439 1.75359 1.72997 1.75365 1.75359 1.75365 1.75365 1.75169 1.72997 1.7122 1.75365 1.73258 1.7122 1.67865 1.73258 1.69691 1.75365 1.73258 1.75169 1.73021 1.73258 1.69691 1.73021 1.69513 1.67865 1.63501 1.69691 1.6517 1.63501 1.5854 1.6517 1.60076 1.69691 1.6517 1.69513 1.65091 1.6517 1.60076 1.65091 1.60094 1.5854 1.53269 1.60076 1.5468 1.53269 1.47885 1.5468 1.49172 1.60076 1.5468 1.60094 1.54777 1.5468 1.49172 1.54777 1.49325 1.47885 1.42517 1.49172 1.43681 1.42517 1.37251 1.43681 1.38289 1.49172 1.43681 1.49325 1.43865 1.43681 1.38289 1.43865 1.38485 1.43726 1.57745 1.46392 1.58193 1.30926 1.46392 1.33717 1.46653 1.46392 1.58193 1.46653 1.56627 1.57745 1.67343 1.58193 1.66361 1.67343 1.72997 1.66361 1.7122 1.58193 1.66361 1.56627 1.63628 1.66361 1.7122 1.63628 1.67865 1.72997 1.75365 1.7122 1.73258 1.75365 1.75169 1.73258 1.73021 1.7122 1.73258 1.67865 1.69691 1.73258 1.73021 1.69691 1.69513 1.12045 1.33035 1.33035 1.49922 1.33035 1.46588 1.49922 1.60354 1.33035 1.49922 1.46588 1.60354 1.49922 1.60354 1.60354 1.68597 1.69513 1.65091 1.6776 1.63596 1.65091 1.60094 1.63596 1.58848 1.6776 1.63596 1.64801 1.60995 1.63596 1.58848 1.60995 1.56589 1.60094 1.54777 1.58848 1.53754 1.54777 1.49325 1.53754 1.4849 1.58848 1.53754 1.56589 1.5181 1.53754 1.4849 1.5181 1.46824 0.757131 0.91324 0.84731 0.97808 0.91324 1.06858 0.97808 1.10746 1.18129 1.33717 1.21467 1.34443 1.06858 1.21467 1.10746 1.22904 1.21467 1.34443 1.22904 1.3374 1.33717 1.46653 1.34443 1.45292 1.46653 1.56627 1.45292 1.53751 1.34443 1.45292 1.3374 1.42865 1.45292 1.53751 1.42865 1.50057 1.56627 1.63628 1.53751 1.59777 1.63628 1.67865 1.59777 1.63501 1.53751 1.59777 1.50057 1.55257 1.59777 1.63501 1.55257 1.5854 1.67865 1.69691 1.63501 1.6517 1.69691 1.69513 1.6517 1.65091 1.63501 1.6517 1.5854 1.60076 1.6517 1.65091 1.60076 1.60094 1.69513 1.6776 1.65091 1.63596 1.6776 1.64801 1.63596 1.60995 1.65091 1.63596 1.60094 1.58848 1.63596 1.60995 1.58848 1.56589 1.64801 1.60995 1.60995 1.57565 1.60995 1.56589 1.57565 1.53547 1.60995 1.57565 1.56589 1.53547 1.57565 1.53547 1.53547 1.49926 1.56589 1.5181 1.53547 1.49134 1.5181 1.46824 1.49134 1.44482 1.53547 1.49134 1.49926 1.459 1.49134 1.44482 1.459 1.41609 0.84731 0.97808 0.910261 1.02011 0.97808 1.10746 1.02011 1.12826 0.910261 1.02011 0.952486 1.04506 1.02011 1.12826 1.04506 1.1358 1.10746 1.22904 1.12826 1.22981 1.22904 1.3374 1.22981 1.32062 1.12826 1.22981 1.1358 1.22095 1.22981 1.32062 1.22095 1.29729 1.3374 1.42865 1.32062 1.39758 1.42865 1.50057 1.39758 1.45885 1.32062 1.39758 1.29729 1.36237 1.39758 1.45885 1.36237 1.41462 1.50057 1.55257 1.45885 1.50376 1.55257 1.5854 1.50376 1.53269 1.45885 1.50376 1.41462 1.4534 1.50376 1.53269 1.4534 1.47885 1.5854 1.60076 1.53269 1.5468 1.60076 1.60094 1.5468 1.54777 1.53269 1.5468 1.47885 1.49172 1.5468 1.54777 1.49172 1.49325 1.60094 1.58848 1.54777 1.53754 1.58848 1.56589 1.53754 1.5181 1.54777 1.53754 1.49325 1.4849 1.53754 1.5181 1.4849 1.46824 1.56589 1.53547 1.5181 1.49134 1.53547 1.49926 1.49134 1.459 1.5181 1.49134 1.46824 1.44482 1.49134 1.459 1.44482 1.41609 0.952486 1.04506 0.979031 1.0573 1.04506 1.1358 1.0573 1.1337 0.979031 1.0573 0.99376 1.06011 1.0573 1.1337 1.06011 1.12463 1.1358 1.22095 1.1337 1.20534 1.22095 1.29729 1.20534 1.2697 1.1337 1.20534 1.12463 1.18507 1.20534 1.2697 1.18507 1.23946 1.29729 1.36237 1.2697 1.32483 1.36237 1.41462 1.32483 1.36943 1.2697 1.32483 1.23946 1.28622 1.32483 1.36943 1.28622 1.32429 1.41462 1.4534 1.36943 1.40288 1.4534 1.47885 1.40288 1.42517 1.36943 1.40288 1.32429 1.35308 1.40288 1.42517 1.35308 1.37251 1.47885 1.49172 1.42517 1.43681 1.49172 1.49325 1.43681 1.43865 1.42517 1.43681 1.37251 1.38289 1.43681 1.43865 1.38289 1.38485 0.99376 1.06011 0.999616 1.05597 1.06011 1.12463 1.05597 1.11058 0.999616 1.05597 0.998832 1.04675 1.05597 1.11058 1.04675 1.09303 1.12463 1.18507 1.11058 1.16168 1.18507 1.23946 1.16168 1.20769 1.11058 1.16168 1.09303 1.13626 1.16168 1.20769 1.13626 1.17521 1.23946 1.28622 1.20769 1.24737 1.28622 1.32429 1.24737 1.27982 1.20769 1.24737 1.17521 1.20885 1.24737 1.27982 1.20885 1.23645 1.37251 1.32137 1.38289 1.33051 1.32137 1.27202 1.33051 1.27994 1.38289 1.33051 1.38485 1.33239 1.33051 1.27994 1.33239 1.28162 1.27202 1.22462 1.27994 1.23134 1.22462 1.17916 1.23134 1.18473 1.27994 1.23134 1.28162 1.2327 1.23134 1.18473 1.2327 1.18569 1.17916 1.13563 1.18473 1.14008 1.13563 1.09392 1.14008 1.0973 1.18473 1.14008 1.18569 1.14059 1.14008 1.0973 1.14059 1.09731 1.49325 1.43865 1.4849 1.43182 1.43865 1.38485 1.43182 1.37921 1.4849 1.43182 1.46824 1.41755 1.43182 1.37921 1.41755 1.36694 1.38485 1.33239 1.37921 1.32765 1.33239 1.28162 1.32765 1.27752 1.37921 1.32765 1.36694 1.31703 1.32765 1.27752 1.31703 1.26824 1.28162 1.2327 1.27752 1.22905 1.2327 1.18569 1.22905 1.18231 1.27752 1.22905 1.26824 1.22083 1.22905 1.18231 1.22083 1.17493 1.18569 1.14059 1.18231 1.13734 1.14059 1.09731 1.13734 1.09408 1.18231 1.13734 1.17493 1.13061 1.13734 1.09408 1.13061 1.08784 1.46824 1.41755 1.44482 1.39709 1.41755 1.36694 1.39709 1.34906 1.44482 1.39709 1.41609 1.37164 1.39709 1.34906 1.37164 1.32653 1.36694 1.31703 1.34906 1.30135 1.31703 1.26824 1.30135 1.25442 1.34906 1.30135 1.32653 1.2814 1.30135 1.25442 1.2814 1.2367 1.26824 1.22083 1.25442 1.20856 1.22083 1.17493 1.20856 1.16397 1.25442 1.20856 1.2367 1.19278 1.20856 1.16397 1.19278 1.14985 1.17493 1.13061 1.16397 1.12071 1.13061 1.08784 1.12071 1.07883 1.16397 1.12071 1.14985 1.10801 1.12071 1.07883 1.10801 1.06734 1.49926 1.459 1.459 1.42258 1.459 1.41609 1.42258 1.38334 1.459 1.42258 1.41609 1.38334 1.42258 1.38334 1.38334 1.34768 1.41609 1.37164 1.38334 1.3423 1.37164 1.32653 1.3423 1.3003 1.38334 1.3423 1.34768 1.31005 1.3423 1.3003 1.31005 1.27121 1.32653 1.2814 1.3003 1.25796 1.2814 1.2367 1.25796 1.21575 1.3003 1.25796 1.27121 1.23176 1.25796 1.21575 1.23176 1.19218 1.2367 1.19278 1.21575 1.17403 1.19278 1.14985 1.17403 1.13302 1.21575 1.17403 1.19218 1.15281 1.17403 1.13302 1.15281 1.11391 1.14985 1.10801 1.13302 1.09287 1.10801 1.06734 1.09287 1.05367 1.13302 1.09287 1.11391 1.07565 1.09287 1.05367 1.07565 1.03813 1.49325 1.4849 1.43865 1.43182 1.4849 1.46824 1.43182 1.41755 1.43865 1.43182 1.38485 1.37921 1.43182 1.41755 1.37921 1.36694 1.46824 1.44482 1.41755 1.39709 1.44482 1.41609 1.39709 1.37164 1.41755 1.39709 1.36694 1.34906 1.39709 1.37164 1.34906 1.32653 1.41609 1.38334 1.37164 1.3423 1.38334 1.34768 1.3423 1.31005 1.37164 1.3423 1.32653 1.3003 1.3423 1.31005 1.3003 1.27121 1.34768 1.31005 1.31005 1.27571 1.31005 1.27121 1.27571 1.23998 1.31005 1.27571 1.27121 1.23998 1.27571 1.23998 1.23998 1.20726 1.27121 1.23176 1.23998 1.20344 1.23176 1.19218 1.20344 1.16654 1.23998 1.20344 1.20726 1.17356 1.20344 1.16654 1.17356 1.13933 1.19218 1.15281 1.16654 1.12961 1.15281 1.11391 1.12961 1.09294 1.16654 1.12961 1.13933 1.10487 1.12961 1.09294 1.10487 1.07047 1.37251 1.38289 1.32137 1.33051 1.38289 1.38485 1.33051 1.33239 1.32137 1.33051 1.27202 1.27994 1.33051 1.33239 1.27994 1.28162 1.38485 1.37921 1.33239 1.32765 1.37921 1.36694 1.32765 1.31703 1.33239 1.32765 1.28162 1.27752 1.32765 1.31703 1.27752 1.26824 1.36694 1.34906 1.31703 1.30135 1.34906 1.32653 1.30135 1.2814 1.31703 1.30135 1.26824 1.25442 1.30135 1.2814 1.25442 1.2367 1.32653 1.3003 1.2814 1.25796 1.3003 1.27121 1.25796 1.23176 1.2814 1.25796 1.2367 1.21575 1.25796 1.23176 1.21575 1.19218 1.27121 1.23998 1.23176 1.20344 1.23998 1.20726 1.20344 1.17356 1.23176 1.20344 1.19218 1.16654 1.20344 1.17356 1.16654 1.13933 1.20726 1.17356 1.17356 1.14261 1.17356 1.13933 1.14261 1.11097 1.17356 1.14261 1.13933 1.11097 1.14261 1.11097 1.11097 1.08183 1.27202 1.27994 1.22462 1.23134 1.27994 1.28162 1.23134 1.2327 1.22462 1.23134 1.17916 1.18473 1.23134 1.2327 1.18473 1.18569 1.28162 1.27752 1.2327 1.22905 1.27752 1.26824 1.22905 1.22083 1.2327 1.22905 1.18569 1.18231 1.22905 1.22083 1.18231 1.17493 1.26824 1.25442 1.22083 1.20856 1.25442 1.2367 1.20856 1.19278 1.22083 1.20856 1.17493 1.16397 1.20856 1.19278 1.16397 1.14985 1.2367 1.21575 1.19278 1.17403 1.21575 1.19218 1.17403 1.15281 1.19278 1.17403 1.14985 1.13302 1.17403 1.15281 1.13302 1.11391 1.19218 1.16654 1.15281 1.12961 1.16654 1.13933 1.12961 1.10487 1.15281 1.12961 1.11391 1.09294 1.12961 1.10487 1.09294 1.07047 1.17916 1.18473 1.13563 1.14008 1.18473 1.18569 1.14008 1.14059 1.13563 1.14008 1.09392 1.0973 1.14008 1.14059 1.0973 1.09731 1.18569 1.18231 1.14059 1.13734 1.18231 1.17493 1.13734 1.13061 1.14059 1.13734 1.09731 1.09408 1.13734 1.13061 1.09408 1.08784 1.17493 1.16397 1.13061 1.12071 1.16397 1.14985 1.12071 1.10801 1.13061 1.12071 1.08784 1.07883 1.12071 1.10801 1.07883 1.06734 1.14985 1.13302 1.10801 1.09287 1.13302 1.11391 1.09287 1.07565 1.10801 1.09287 1.06734 1.05367 1.09287 1.07565 1.05367 1.03813 -0.144169 0.138694 0.701376 -0.647402 0.138694 -0.923149 -0.647402 -1.0745 0.701376 -0.647402 -0.477155 -0.276266 -0.647402 -1.0745 -0.276266 -0.0536965 -0.144169 0.701376 0.138694 -0.647402 0.701376 -0.477155 -0.647402 -0.276266 0.138694 -0.647402 -0.923149 -1.0745 -0.647402 -0.276266 -1.0745 -0.0536965 -0.477155 -0.276266 -0.276266 0.748668 -0.276266 -0.0536965 0.748668 0.954553 -0.276266 0.748668 -0.0536965 0.954553 0.748668 0.954553 0.954553 0.99519 -0.923149 0.324261 -1.0745 -0.0258604 0.324261 0.994065 -0.0258604 0.448311 -1.0745 -0.0258604 -0.0536965 0.238346 -0.0258604 0.448311 0.238346 0.167504 0.994065 0.716427 0.448311 0.221417 0.716427 0.0929711 0.221417 -0.237292 0.448311 0.221417 0.167504 -0.167055 0.221417 -0.237292 -0.167055 -0.521971 -0.0536965 0.238346 0.954553 0.557131 0.238346 0.167504 0.557131 0.0277776 0.954553 0.557131 0.99519 0.434039 0.557131 0.0277776 0.434039 -0.170445 0.167504 -0.167055 0.0277776 -0.416528 -0.167055 -0.521971 -0.416528 -0.70127 0.0277776 -0.416528 -0.170445 -0.581789 -0.416528 -0.70127 -0.581789 -0.777555 0.0929711 -0.465858 -0.237292 -0.626261 -0.465858 -0.822804 -0.626261 -0.849825 -0.237292 -0.626261 -0.521971 -0.761837 -0.626261 -0.849825 -0.761837 -0.858481 -0.822804 -0.980727 -0.849825 -0.916296 -0.980727 -0.988308 -0.916296 -0.867096 -0.849825 -0.916296 -0.858481 -0.835693 -0.916296 -0.867096 -0.835693 -0.731078 -0.521971 -0.761837 -0.70127 -0.824837 -0.761837 -0.858481 -0.824837 -0.818544 -0.70127 -0.824837 -0.777555 -0.804124 -0.824837 -0.818544 -0.804124 -0.719338 -0.858481 -0.835693 -0.818544 -0.72239 -0.835693 -0.731078 -0.72239 -0.572779 -0.818544 -0.72239 -0.719338 -0.57084 -0.72239 -0.572779 -0.57084 -0.390637 -0.988308 -0.897701 -0.867096 -0.744903 -0.897701 -0.750708 -0.744903 -0.583389 -0.867096 -0.744903 -0.731078 -0.578731 -0.744903 -0.583389 -0.578731 -0.404276 -0.750708 -0.576874 -0.583389 -0.406041 -0.576874 -0.395519 -0.406041 -0.227958 -0.583389 -0.406041 -0.404276 -0.225036 -0.406041 -0.227958 -0.225036 -0.0517823 -0.731078 -0.578731 -0.572779 -0.397104 -0.578731 -0.404276 -0.397104 -0.214262 -0.572779 -0.397104 -0.390637 -0.20107 -0.397104 -0.214262 -0.20107 -0.0158782 -0.404276 -0.225036 -0.214262 -0.0362451 -0.225036 -0.0517823 -0.0362451 0.129994 -0.214262 -0.0362451 -0.0158782 0.157103 -0.0362451 0.129994 0.157103 0.313939 -0.395519 -0.218473 -0.227958 -0.0581429 -0.218473 -0.052445 -0.0581429 0.0985383 -0.227958 -0.0581429 -0.0517823 0.109378 -0.0581429 0.0985383 0.109378 0.255457 -0.052445 0.0991969 0.0985383 0.239895 0.0991969 0.235186 0.239895 0.365392 0.0985383 0.239895 0.255457 0.385447 0.239895 0.365392 0.385447 0.499535 -0.0517823 0.109378 0.129994 0.280933 0.109378 0.255457 0.280933 0.415266 0.129994 0.280933 0.313939 0.453172 0.280933 0.415266 0.453172 0.574843 0.255457 0.385447 0.415266 0.53304 0.385447 0.499535 0.53304 0.635084 0.415266 0.53304 0.574843 0.679849 0.53304 0.635084 0.679849 0.769526 0.235186 0.355525 0.365392 0.475472 0.355525 0.460937 0.475472 0.571113 0.365392 0.475472 0.499535 0.598589 0.475472 0.571113 0.598589 0.68382 0.460937 0.552528 0.571113 0.653548 0.552528 0.631565 0.653548 0.724101 0.571113 0.653548 0.68382 0.756573 0.653548 0.724101 0.756573 0.81821 0.499535 0.598589 0.635084 0.722633 0.598589 0.68382 0.722633 0.79709 0.635084 0.722633 0.769526 0.845393 0.722633 0.79709 0.845393 0.908992 0.68382 0.756573 0.79709 0.859886 0.756573 0.81821 0.859886 0.912397 0.79709 0.859886 0.908992 0.961805 0.859886 0.912397 0.961805 1.0052 0.631565 0.699346 0.724101 0.78408 0.699346 0.757131 0.78408 0.834722 0.724101 0.78408 0.81821 0.87003 0.78408 0.834722 0.87003 0.91324 0.81821 0.87003 0.912397 0.955901 0.87003 0.91324 0.955901 0.991559 0.912397 0.955901 1.0052 1.04043 0.955901 0.991559 1.04043 1.06858 -0.923149 -1.0745 0.324261 -0.0258604 -1.0745 -0.0536965 -0.0258604 0.238346 0.324261 -0.0258604 0.994065 0.448311 -0.0258604 0.238346 0.448311 0.167504 -0.0536965 0.954553 0.238346 0.557131 0.954553 0.99519 0.5571