# vtk DataFile Version 3.0
#This file was generated by the deal.II library on 2020/5/26 at 23:29:02
ASCII
DATASET UNSTRUCTURED_GRID

POINTS 7060 double
0.75 0 0
0.8125 0 0
0.75 0.0625 0
0.8125 0.0625 0
0.8125 0 0
0.875 0 0
0.8125 0.0625 0
0.875 0.0625 0
0.875 0 0
0.9375 0 0
0.875 0.0625 0
0.9375 0.0625 0
0.9375 0 0
1 0 0
0.9375 0.0625 0
1 0.0625 0
0.8125 0.0625 0
0.875 0.0625 0
0.8125 0.125 0
0.875 0.125 0
0.875 0.0625 0
0.9375 0.0625 0
0.875 0.125 0
0.9375 0.125 0
0.9375 0.0625 0
1 0.0625 0
0.9375 0.125 0
1 0.125 0
0.9375 0.125 0
1 0.125 0
0.9375 0.1875 0
1 0.1875 0
0.875 0.625 0
0.9375 0.625 0
0.875 0.6875 0
0.9375 0.6875 0
0.9375 0.625 0
1 0.625 0
0.9375 0.6875 0
1 0.6875 0
0.8125 0.6875 0
0.875 0.6875 0
0.8125 0.75 0
0.875 0.75 0
0.875 0.6875 0
0.9375 0.6875 0
0.875 0.75 0
0.9375 0.75 0
0.9375 0.6875 0
1 0.6875 0
0.9375 0.75 0
1 0.75 0
0 0.75 0
0.0625 0.75 0
0 0.8125 0
0.0625 0.8125 0
0.75 0.75 0
0.8125 0.75 0
0.75 0.8125 0
0.8125 0.8125 0
0.8125 0.75 0
0.875 0.75 0
0.8125 0.8125 0
0.875 0.8125 0
0.875 0.75 0
0.9375 0.75 0
0.875 0.8125 0
0.9375 0.8125 0
0.9375 0.75 0
1 0.75 0
0.9375 0.8125 0
1 0.8125 0
0 0.8125 0
0.0625 0.8125 0
0 0.875 0
0.0625 0.875 0
0.0625 0.8125 0
0.125 0.8125 0
0.0625 0.875 0
0.125 0.875 0
0.6875 0.8125 0
0.75 0.8125 0
0.6875 0.875 0
0.75 0.875 0
0.75 0.8125 0
0.8125 0.8125 0
0.75 0.875 0
0.8125 0.875 0
0.8125 0.8125 0
0.875 0.8125 0
0.8125 0.875 0
0.875 0.875 0
0.875 0.8125 0
0.9375 0.8125 0
0.875 0.875 0
0.9375 0.875 0
0.9375 0.8125 0
1 0.8125 0
0.9375 0.875 0
1 0.875 0
0 0.875 0
0.0625 0.875 0
0 0.9375 0
0.0625 0.9375 0
0.0625 0.875 0
0.125 0.875 0
0.0625 0.9375 0
0.125 0.9375 0
0.625 0.875 0
0.6875 0.875 0
0.625 0.9375 0
0.6875 0.9375 0
0.6875 0.875 0
0.75 0.875 0
0.6875 0.9375 0
0.75 0.9375 0
0.75 0.875 0
0.8125 0.875 0
0.75 0.9375 0
0.8125 0.9375 0
0.8125 0.875 0
0.875 0.875 0
0.8125 0.9375 0
0.875 0.9375 0
0.875 0.875 0
0.9375 0.875 0
0.875 0.9375 0
0.9375 0.9375 0
0.9375 0.875 0
1 0.875 0
0.9375 0.9375 0
1 0.9375 0
0 0.9375 0
0.0625 0.9375 0
0 1 0
0.0625 1 0
0.0625 0.9375 0
0.125 0.9375 0
0.0625 1 0
0.125 1 0
0.125 0.9375 0
0.1875 0.9375 0
0.125 1 0
0.1875 1 0
0.625 0.9375 0
0.6875 0.9375 0
0.625 1 0
0.6875 1 0
0.6875 0.9375 0
0.75 0.9375 0
0.6875 1 0
0.75 1 0
0.75 0.9375 0
0.8125 0.9375 0
0.75 1 0
0.8125 1 0
0.8125 0.9375 0
0.875 0.9375 0
0.8125 1 0
0.875 1 0
0.875 0.9375 0
0.9375 0.9375 0
0.875 1 0
0.9375 1 0
0.9375 0.9375 0
1 0.9375 0
0.9375 1 0
1 1 0
0.46875 0 0
0.5 0 0
0.46875 0.03125 0
0.5 0.03125 0
0.46875 0.03125 0
0.5 0.03125 0
0.46875 0.0625 0
0.5 0.0625 0
0.5 0 0
0.53125 0 0
0.5 0.03125 0
0.53125 0.03125 0
0.53125 0 0
0.5625 0 0
0.53125 0.03125 0
0.5625 0.03125 0
0.5 0.03125 0
0.53125 0.03125 0
0.5 0.0625 0
0.53125 0.0625 0
0.53125 0.03125 0
0.5625 0.03125 0
0.53125 0.0625 0
0.5625 0.0625 0
0.5625 0 0
0.59375 0 0
0.5625 0.03125 0
0.59375 0.03125 0
0.59375 0 0
0.625 0 0
0.59375 0.03125 0
0.625 0.03125 0
0.5625 0.03125 0
0.59375 0.03125 0
0.5625 0.0625 0
0.59375 0.0625 0
0.59375 0.03125 0
0.625 0.03125 0
0.59375 0.0625 0
0.625 0.0625 0
0.4375 0.0625 0
0.46875 0.0625 0
0.4375 0.09375 0
0.46875 0.09375 0
0.46875 0.0625 0
0.5 0.0625 0
0.46875 0.09375 0
0.5 0.09375 0
0.4375 0.09375 0
0.46875 0.09375 0
0.4375 0.125 0
0.46875 0.125 0
0.46875 0.09375 0
0.5 0.09375 0
0.46875 0.125 0
0.5 0.125 0
0.5 0.0625 0
0.53125 0.0625 0
0.5 0.09375 0
0.53125 0.09375 0
0.53125 0.0625 0
0.5625 0.0625 0
0.53125 0.09375 0
0.5625 0.09375 0
0.5 0.09375 0
0.53125 0.09375 0
0.5 0.125 0
0.53125 0.125 0
0.53125 0.09375 0
0.5625 0.09375 0
0.53125 0.125 0
0.5625 0.125 0
0.5625 0.0625 0
0.59375 0.0625 0
0.5625 0.09375 0
0.59375 0.09375 0
0.59375 0.0625 0
0.625 0.0625 0
0.59375 0.09375 0
0.625 0.09375 0
0.5625 0.09375 0
0.59375 0.09375 0
0.5625 0.125 0
0.59375 0.125 0
0.59375 0.09375 0
0.625 0.09375 0
0.59375 0.125 0
0.625 0.125 0
0.34375 0.15625 0
0.375 0.15625 0
0.34375 0.1875 0
0.375 0.1875 0
0.40625 0.125 0
0.4375 0.125 0
0.40625 0.15625 0
0.4375 0.15625 0
0.375 0.15625 0
0.40625 0.15625 0
0.375 0.1875 0
0.40625 0.1875 0
0.40625 0.15625 0
0.4375 0.15625 0
0.40625 0.1875 0
0.4375 0.1875 0
0.4375 0.125 0
0.46875 0.125 0
0.4375 0.15625 0
0.46875 0.15625 0
0.46875 0.125 0
0.5 0.125 0
0.46875 0.15625 0
0.5 0.15625 0
0.4375 0.15625 0
0.46875 0.15625 0
0.4375 0.1875 0
0.46875 0.1875 0
0.46875 0.15625 0
0.5 0.15625 0
0.46875 0.1875 0
0.5 0.1875 0
0.5 0.125 0
0.53125 0.125 0
0.5 0.15625 0
0.53125 0.15625 0
0.53125 0.125 0
0.5625 0.125 0
0.53125 0.15625 0
0.5625 0.15625 0
0.5 0.15625 0
0.53125 0.15625 0
0.5 0.1875 0
0.53125 0.1875 0
0.53125 0.15625 0
0.5625 0.15625 0
0.53125 0.1875 0
0.5625 0.1875 0
0.5625 0.125 0
0.59375 0.125 0
0.5625 0.15625 0
0.59375 0.15625 0
0.59375 0.125 0
0.625 0.125 0
0.59375 0.15625 0
0.625 0.15625 0
0.5625 0.15625 0
0.59375 0.15625 0
0.5625 0.1875 0
0.59375 0.1875 0
0.59375 0.15625 0
0.625 0.15625 0
0.59375 0.1875 0
0.625 0.1875 0
0.25 0.21875 0
0.28125 0.21875 0
0.25 0.25 0
0.28125 0.25 0
0.28125 0.21875 0
0.3125 0.21875 0
0.28125 0.25 0
0.3125 0.25 0
0.3125 0.1875 0
0.34375 0.1875 0
0.3125 0.21875 0
0.34375 0.21875 0
0.34375 0.1875 0
0.375 0.1875 0
0.34375 0.21875 0
0.375 0.21875 0
0.3125 0.21875 0
0.34375 0.21875 0
0.3125 0.25 0
0.34375 0.25 0
0.34375 0.21875 0
0.375 0.21875 0
0.34375 0.25 0
0.375 0.25 0
0.375 0.1875 0
0.40625 0.1875 0
0.375 0.21875 0
0.40625 0.21875 0
0.40625 0.1875 0
0.4375 0.1875 0
0.40625 0.21875 0
0.4375 0.21875 0
0.375 0.21875 0
0.40625 0.21875 0
0.375 0.25 0
0.40625 0.25 0
0.40625 0.21875 0
0.4375 0.21875 0
0.40625 0.25 0
0.4375 0.25 0
0.4375 0.1875 0
0.46875 0.1875 0
0.4375 0.21875 0
0.46875 0.21875 0
0.46875 0.1875 0
0.5 0.1875 0
0.46875 0.21875 0
0.5 0.21875 0
0.4375 0.21875 0
0.46875 0.21875 0
0.4375 0.25 0
0.46875 0.25 0
0.46875 0.21875 0
0.5 0.21875 0
0.46875 0.25 0
0.5 0.25 0
0.5 0.1875 0
0.53125 0.1875 0
0.5 0.21875 0
0.53125 0.21875 0
0.53125 0.1875 0
0.5625 0.1875 0
0.53125 0.21875 0
0.5625 0.21875 0
0.5 0.21875 0
0.53125 0.21875 0
0.5 0.25 0
0.53125 0.25 0
0.53125 0.21875 0
0.5625 0.21875 0
0.53125 0.25 0
0.5625 0.25 0
0.21875 0.25 0
0.25 0.25 0
0.21875 0.28125 0
0.25 0.28125 0
0.21875 0.28125 0
0.25 0.28125 0
0.21875 0.3125 0
0.25 0.3125 0
0.25 0.25 0
0.28125 0.25 0
0.25 0.28125 0
0.28125 0.28125 0
0.28125 0.25 0
0.3125 0.25 0
0.28125 0.28125 0
0.3125 0.28125 0
0.25 0.28125 0
0.28125 0.28125 0
0.25 0.3125 0
0.28125 0.3125 0
0.28125 0.28125 0
0.3125 0.28125 0
0.28125 0.3125 0
0.3125 0.3125 0
0.3125 0.25 0
0.34375 0.25 0
0.3125 0.28125 0
0.34375 0.28125 0
0.34375 0.25 0
0.375 0.25 0
0.34375 0.28125 0
0.375 0.28125 0
0.3125 0.28125 0
0.34375 0.28125 0
0.3125 0.3125 0
0.34375 0.3125 0
0.34375 0.28125 0
0.375 0.28125 0
0.34375 0.3125 0
0.375 0.3125 0
0.375 0.25 0
0.40625 0.25 0
0.375 0.28125 0
0.40625 0.28125 0
0.40625 0.25 0
0.4375 0.25 0
0.40625 0.28125 0
0.4375 0.28125 0
0.375 0.28125 0
0.40625 0.28125 0
0.375 0.3125 0
0.40625 0.3125 0
0.40625 0.28125 0
0.4375 0.28125 0
0.40625 0.3125 0
0.4375 0.3125 0
0.4375 0.25 0
0.46875 0.25 0
0.4375 0.28125 0
0.46875 0.28125 0
0.46875 0.25 0
0.5 0.25 0
0.46875 0.28125 0
0.5 0.28125 0
0.4375 0.28125 0
0.46875 0.28125 0
0.4375 0.3125 0
0.46875 0.3125 0
0.46875 0.28125 0
0.5 0.28125 0
0.46875 0.3125 0
0.5 0.3125 0
0.5 0.25 0
0.53125 0.25 0
0.5 0.28125 0
0.53125 0.28125 0
0.53125 0.25 0
0.5625 0.25 0
0.53125 0.28125 0
0.5625 0.28125 0
0.5 0.28125 0
0.53125 0.28125 0
0.5 0.3125 0
0.53125 0.3125 0
0.53125 0.28125 0
0.5625 0.28125 0
0.53125 0.3125 0
0.5625 0.3125 0
0.15625 0.34375 0
0.1875 0.34375 0
0.15625 0.375 0
0.1875 0.375 0
0.1875 0.3125 0
0.21875 0.3125 0
0.1875 0.34375 0
0.21875 0.34375 0
0.21875 0.3125 0
0.25 0.3125 0
0.21875 0.34375 0
0.25 0.34375 0
0.1875 0.34375 0
0.21875 0.34375 0
0.1875 0.375 0
0.21875 0.375 0
0.21875 0.34375 0
0.25 0.34375 0
0.21875 0.375 0
0.25 0.375 0
0.25 0.3125 0
0.28125 0.3125 0
0.25 0.34375 0
0.28125 0.34375 0
0.28125 0.3125 0
0.3125 0.3125 0
0.28125 0.34375 0
0.3125 0.34375 0
0.25 0.34375 0
0.28125 0.34375 0
0.25 0.375 0
0.28125 0.375 0
0.28125 0.34375 0
0.3125 0.34375 0
0.28125 0.375 0
0.3125 0.375 0
0.375 0.3125 0
0.40625 0.3125 0
0.375 0.34375 0
0.40625 0.34375 0
0.40625 0.3125 0
0.4375 0.3125 0
0.40625 0.34375 0
0.4375 0.34375 0
0.375 0.34375 0
0.40625 0.34375 0
0.375 0.375 0
0.40625 0.375 0
0.40625 0.34375 0
0.4375 0.34375 0
0.40625 0.375 0
0.4375 0.375 0
0.4375 0.3125 0
0.46875 0.3125 0
0.4375 0.34375 0
0.46875 0.34375 0
0.46875 0.3125 0
0.5 0.3125 0
0.46875 0.34375 0
0.5 0.34375 0
0.4375 0.34375 0
0.46875 0.34375 0
0.4375 0.375 0
0.46875 0.375 0
0.46875 0.34375 0
0.5 0.34375 0
0.46875 0.375 0
0.5 0.375 0
0.15625 0.375 0
0.1875 0.375 0
0.15625 0.40625 0
0.1875 0.40625 0
0.125 0.40625 0
0.15625 0.40625 0
0.125 0.4375 0
0.15625 0.4375 0
0.15625 0.40625 0
0.1875 0.40625 0
0.15625 0.4375 0
0.1875 0.4375 0
0.1875 0.375 0
0.21875 0.375 0
0.1875 0.40625 0
0.21875 0.40625 0
0.21875 0.375 0
0.25 0.375 0
0.21875 0.40625 0
0.25 0.40625 0
0.1875 0.40625 0
0.21875 0.40625 0
0.1875 0.4375 0
0.21875 0.4375 0
0.21875 0.40625 0
0.25 0.40625 0
0.21875 0.4375 0
0.25 0.4375 0
0.25 0.375 0
0.28125 0.375 0
0.25 0.40625 0
0.28125 0.40625 0
0.28125 0.375 0
0.3125 0.375 0
0.28125 0.40625 0
0.3125 0.40625 0
0.25 0.40625 0
0.28125 0.40625 0
0.25 0.4375 0
0.28125 0.4375 0
0.28125 0.40625 0
0.3125 0.40625 0
0.28125 0.4375 0
0.3125 0.4375 0
0.3125 0.375 0
0.34375 0.375 0
0.3125 0.40625 0
0.34375 0.40625 0
0.34375 0.375 0
0.375 0.375 0
0.34375 0.40625 0
0.375 0.40625 0
0.3125 0.40625 0
0.34375 0.40625 0
0.3125 0.4375 0
0.34375 0.4375 0
0.34375 0.40625 0
0.375 0.40625 0
0.34375 0.4375 0
0.375 0.4375 0
0.375 0.375 0
0.40625 0.375 0
0.375 0.40625 0
0.40625 0.40625 0
0.40625 0.375 0
0.4375 0.375 0
0.40625 0.40625 0
0.4375 0.40625 0
0.375 0.40625 0
0.40625 0.40625 0
0.375 0.4375 0
0.40625 0.4375 0
0.40625 0.40625 0
0.4375 0.40625 0
0.40625 0.4375 0
0.4375 0.4375 0
0.4375 0.375 0
0.46875 0.375 0
0.4375 0.40625 0
0.46875 0.40625 0
0.46875 0.375 0
0.5 0.375 0
0.46875 0.40625 0
0.5 0.40625 0
0.4375 0.40625 0
0.46875 0.40625 0
0.4375 0.4375 0
0.46875 0.4375 0
0.46875 0.40625 0
0.5 0.40625 0
[...]
POINT_DATA 7060
SCALARS solution double 1
LOOKUP_TABLE default
0.957743 0.926262 -5.32746 -3.39906 0.926262 0.892447 -3.39906 -1.81998 0.892447 0.858142 -1.81998 -0.449536 0.858142 0.824405 -0.449536 0.823369 -3.39906 -1.81998 -7.35768 -4.31644 -1.81998 -0.449536 -4.31644 -1.65796 -0.449536 0.823369 -1.65796 0.820278 -1.65796 0.820278 -2.68019 0.815189 -7.00558 -3.1024 -5.831 -2.53704 -3.1024 0.73503 -2.53704 0.719429 -9.18977 -5.831 -7.24851 -4.57366 -5.831 -2.53704 -4.57366 -1.92611 -2.53704 0.719429 -1.92611 0.703375 0.957743 -5.32746 0.926262 -3.39906 -9.94228 -7.24851 -7.24851 -5.26586 -7.24851 -4.57366 -5.26586 -3.2754 -4.57366 -1.92611 -3.2754 -1.29102 -1.92611 0.703375 -1.29102 0.687037 0.926262 -3.39906 0.892447 -1.81998 -3.39906 -7.35768 -1.81998 -4.31644 -9.18977 -7.24851 -5.831 -4.57366 -7.24851 -5.26586 -4.57366 -3.2754 -5.26586 -3.2754 -3.2754 -1.96176 -3.2754 -1.29102 -1.96176 -0.645248 -1.29102 0.687037 -0.645248 0.670565 0.892447 -1.81998 0.858142 -0.449536 -1.81998 -4.31644 -0.449536 -1.65796 -7.00558 -5.831 -3.1024 -2.53704 -5.831 -4.57366 -2.53704 -1.92611 -4.57366 -3.2754 -1.92611 -1.29102 -3.2754 -1.96176 -1.29102 -0.645248 -1.96176 -0.645248 -0.645248 0.00404414 -0.645248 0.670565 0.00404414 0.654091 0.858142 -0.449536 0.824405 0.823369 -0.449536 -1.65796 0.823369 0.820278 -1.65796 -2.68019 0.820278 0.815189 -3.1024 -2.53704 0.73503 0.719429 -2.53704 -1.92611 0.719429 0.703375 -1.92611 -1.29102 0.703375 0.687037 -1.29102 -0.645248 0.687037 0.670565 -0.645248 0.00404414 0.670565 0.654091 0.00404414 0.654091 0.654091 0.637725 0.910261 0.952486 -12.9009 -10.7362 -12.9009 -10.7362 -26.0737 -21.9336 0.952486 0.979031 -10.7362 -8.93987 0.979031 0.99376 -8.93987 -7.44283 -10.7362 -8.93987 -21.9336 -18.4781 -8.93987 -7.44283 -18.4781 -15.5823 0.99376 0.999616 -7.44283 -6.18844 0.999616 0.998832 -6.18844 -5.13068 -7.44283 -6.18844 -15.5823 -13.1429 -6.18844 -5.13068 -13.1429 -11.0754 -31.0395 -26.0737 -44.9976 -38.0388 -26.0737 -21.9336 -38.0388 -32.1979 -44.9976 -38.0388 -56.8288 -48.3544 -38.0388 -32.1979 -48.3544 -41.1744 -21.9336 -18.4781 -32.1979 -27.2896 -18.4781 -15.5823 -27.2896 -23.1519 -32.1979 -27.2896 -41.1744 -35.0904 -27.2896 -23.1519 -35.0904 -29.9233 -15.5823 -13.1429 -23.1519 -19.6476 -13.1429 -11.0754 -19.6476 -16.663 -23.1519 -19.6476 -29.9233 -25.5183 -19.6476 -16.663 -25.5183 -21.7444 -104.117 -89.8312 -111.489 -97.2245 -66.797 -56.8288 -77.1884 -66.1961 -89.8312 -77.1884 -97.2245 -84.3613 -77.1884 -66.1961 -84.3613 -72.9872 -56.8288 -48.3544 -66.1961 -56.7315 -48.3544 -41.1744 -56.7315 -48.62 -66.1961 -56.7315 -72.9872 -63.0456 -56.7315 -48.62 -63.0456 -54.4111 -41.1744 -35.0904 -48.62 -41.6766 -35.0904 -29.9233 -41.6766 -35.7266 -48.62 -41.6766 -54.4111 -46.9326 -41.6766 -35.7266 -46.9326 -40.4572 -29.9233 -25.5183 -35.7266 -30.6138 -25.5183 -21.7444 -30.6138 -26.2026 -35.7266 -30.6138 -40.4572 -34.8416 -30.6138 -26.2026 -34.8416 -29.9568 -155.11 -142.559 -148.211 -138.02 -142.559 -128.557 -138.02 -126.121 -126.81 -111.489 -128.557 -114.418 -111.489 -97.2245 -114.418 -100.925 -128.557 -114.418 -126.121 -113.682 -114.418 -100.925 -113.682 -101.468 -97.2245 -84.3613 -100.925 -88.4913 -84.3613 -72.9872 -88.4913 -77.2837 -100.925 -88.4913 -101.468 -89.9344 -88.4913 -77.2837 -89.9344 -79.3148 -72.9872 -63.0456 -77.2837 -67.3203 -63.0456 -54.4111 -67.3203 -58.5365 -77.2837 -67.3203 -79.3148 -69.697 -67.3203 -58.5365 -69.697 -61.0784 -54.4111 -46.9326 -58.5365 -50.8279 -46.9326 -40.4572 -50.8279 -44.0751 -58.5365 -50.8279 -61.0784 -53.4053 -50.8279 -44.0751 -53.4053 -46.5975 -155.11 -148.211 -142.559 -138.02 -142.559 -138.02 -128.557 -126.121 -148.211 -138.02 -138.02 -130.28 -138.02 -126.121 -130.28 -120.651 -138.02 -130.28 -126.121 -120.651 -130.28 -120.651 -120.651 -113.204 -126.121 -113.682 -120.651 -110.147 -113.682 -101.468 -110.147 -99.4882 -120.651 -110.147 -113.204 -104.644 -110.147 -99.4882 -104.644 -95.6264 -101.468 -89.9344 -99.4882 -89.1464 -89.9344 -79.3148 -89.1464 -79.4016 -99.4882 -89.1464 -95.6264 -86.6121 -89.1464 -79.4016 -86.6121 -77.9053 -79.3148 -69.697 -79.4016 -70.3979 -69.697 -61.0784 -70.3979 -62.1875 -79.4016 -70.3979 -77.9053 -69.6884 -70.3979 -62.1875 -69.6884 -62.0563 -61.0784 -53.4053 -62.1875 -54.7645 -53.4053 -46.5975 -54.7645 -48.0887 -62.1875 -54.7645 -62.0563 -55.0438 -54.7645 -48.0887 -55.0438 -48.6462 -104.117 -111.489 -89.8312 -97.2245 -126.81 -128.557 -111.489 -114.418 -128.557 -126.121 -114.418 -113.682 -111.489 -114.418 -97.2245 -100.925 -114.418 -113.682 -100.925 -101.468 -126.121 -120.651 -113.682 -110.147 -120.651 -113.204 -110.147 -104.644 -113.682 -110.147 -101.468 -99.4882 -110.147 -104.644 -99.4882 -95.6264 -95.6264 -86.6121 -90.4643 -82.794 -86.6121 -77.9053 -82.794 -75.187 -90.4643 -82.794 -84.4925 -78.1 -82.794 -75.187 -78.1 -71.5792 -77.9053 -69.6884 -75.187 -67.8464 -69.6884 -62.0563 -67.8464 -60.8961 -75.187 -67.8464 -71.5792 -65.1384 -67.8464 -60.8961 -65.1384 -58.9176 -89.8312 -97.2245 -77.1884 -84.3613 -66.797 -77.1884 -56.8288 -66.1961 -77.1884 -84.3613 -66.1961 -72.9872 -97.2245 -100.925 -84.3613 -88.4913 -100.925 -101.468 -88.4913 -89.9344 -84.3613 -88.4913 -72.9872 -77.2837 -88.4913 -89.9344 -77.2837 -79.3148 -101.468 -99.4882 -89.9344 -89.1464 -99.4882 -95.6264 -89.1464 -86.6121 -89.9344 -89.1464 -79.3148 -79.4016 -89.1464 -86.6121 -79.4016 -77.9053 -95.6264 -90.4643 -86.6121 -82.794 -90.4643 -84.4925 -82.794 -78.1 -86.6121 -82.794 -77.9053 -75.187 -82.794 -78.1 -75.187 -71.5792 -84.4925 -78.1 -78.1 -72.8695 -78.1 -71.5792 -72.8695 -67.3703 -78.1 -72.8695 -71.5792 -67.3703 -72.8695 -67.3703 -67.3703 -62.7984 -71.5792 -65.1384 -67.3703 -61.8047 -65.1384 -58.9176 -61.8047 -56.3178 -67.3703 -61.8047 -62.7984 -58.0514 -61.8047 -56.3178 -58.0514 -53.2717 0.910261 -12.9009 0.952486 -10.7362 -12.9009 -26.0737 -10.7362 -21.9336 -31.0395 -44.9976 -26.0737 -38.0388 -44.9976 -56.8288 -38.0388 -48.3544 -26.0737 -38.0388 -21.9336 -32.1979 -38.0388 -48.3544 -32.1979 -41.1744 -56.8288 -66.1961 -48.3544 -56.7315 -66.1961 -72.9872 -56.7315 -63.0456 -48.3544 -56.7315 -41.1744 -48.62 -56.7315 -63.0456 -48.62 -54.4111 -72.9872 -77.2837 -63.0456 -67.3203 -77.2837 -79.3148 -67.3203 -69.697 -63.0456 -67.3203 -54.4111 -58.5365 -67.3203 -69.697 -58.5365 -61.0784 -79.3148 -79.4016 -69.697 -70.3979 -79.4016 -77.9053 -70.3979 -69.6884 -69.697 -70.3979 -61.0784 -62.1875 -70.3979 -69.6884 -62.1875 -62.0563 -77.9053 -75.187 -69.6884 -67.8464 -75.187 -71.5792 -67.8464 -65.1384 -69.6884 -67.8464 -62.0563 -60.8961 -67.8464 -65.1384 -60.8961 -58.9176 -71.5792 -67.3703 -65.1384 -61.8047 -67.3703 -62.7984 -61.8047 -58.0514 -65.1384 -61.8047 -58.9176 -56.3178 -61.8047 -58.0514 -56.3178 -53.2717 0.952486 -10.7362 0.979031 -8.93987 -10.7362 -21.9336 -8.93987 -18.4781 0.979031 -8.93987 0.99376 -7.44283 -8.93987 -18.4781 -7.44283 -15.5823 -21.9336 -32.1979 -18.4781 -27.2896 -32.1979 -41.1744 -27.2896 -35.0904 -18.4781 -27.2896 -15.5823 -23.1519 -27.2896 -35.0904 -23.1519 -29.9233 -41.1744 -48.62 -35.0904 -41.6766 -48.62 -54.4111 -41.6766 -46.9326 -35.0904 -41.6766 -29.9233 -35.7266 -41.6766 -46.9326 -35.7266 -40.4572 -54.4111 -58.5365 -46.9326 -50.8279 -58.5365 -61.0784 -50.8279 -53.4053 -46.9326 -50.8279 -40.4572 -44.0751 -50.8279 -53.4053 -44.0751 -46.5975 -61.0784 -62.1875 -53.4053 -54.7645 -62.1875 -62.0563 -54.7645 -55.0438 -53.4053 -54.7645 -46.5975 -48.0887 -54.7645 -55.0438 -48.0887 -48.6462 0.99376 -7.44283 0.999616 -6.18844 -7.44283 -15.5823 -6.18844 -13.1429 0.999616 -6.18844 0.998832 -5.13068 -6.18844 -13.1429 -5.13068 -11.0754 -15.5823 -23.1519 -13.1429 -19.6476 -23.1519 -29.9233 -19.6476 -25.5183 -13.1429 -19.6476 -11.0754 -16.663 -19.6476 -25.5183 -16.663 -21.7444 -29.9233 -35.7266 -25.5183 -30.6138 -35.7266 -40.4572 -30.6138 -34.8416 -25.5183 -30.6138 -21.7444 -26.2026 -30.6138 -34.8416 -26.2026 -29.9568 -46.5975 -40.5647 -48.0887 -42.1008 -40.5647 -35.2152 -42.1008 -36.7338 -48.0887 -42.1008 -48.6462 -42.8347 -42.1008 -36.7338 -42.8347 -37.5663 -35.2152 -30.4615 -36.7338 -31.9184 -30.4615 -26.2228 -31.9184 -27.5875 -36.7338 -31.9184 -37.5663 -32.7913 -31.9184 -27.5875 -32.7913 -28.4574 -26.2228 -22.4255 -27.5875 -23.6777 -22.4255 -19.0039 -23.6777 -20.1302 -27.5875 -23.6777 -28.4574 -24.5128 -23.6777 -20.1302 -24.5128 -20.9077 -62.0563 -55.0438 -60.8961 -54.4019 -55.0438 -48.6462 -54.4019 -48.3887 -60.8961 -54.4019 -58.9176 -53.0037 -54.4019 -48.3887 -53.0037 -47.4438 -48.6462 -42.8347 -48.3887 -42.8539 -42.8347 -37.5663 -42.8539 -37.7769 -48.3887 -42.8539 -47.4438 -42.2565 -42.8539 -37.7769 -42.2565 -37.4406 -37.5663 -32.7913 -37.7769 -33.1266 -32.7913 -28.4574 -33.1266 -28.8659 -37.7769 -33.1266 -37.4406 -32.9814 -33.1266 -28.8659 -32.9814 -28.8559 -28.4574 -24.5128 -28.8659 -24.9548 -24.5128 -20.9077 -24.9548 -21.353 -28.8659 -24.9548 -28.8559 -25.0357 -24.9548 -21.353 -25.0357 -21.4901 -58.9176 -53.0037 -56.3178 -51.0085 -53.0037 -47.4438 -51.0085 -45.9391 -56.3178 -51.0085 -53.2717 -48.5626 -51.0085 -45.9391 -48.5626 -43.9952 -47.4438 -42.2565 -45.9391 -41.1439 -42.2565 -37.4406 -41.1439 -36.6371 -45.9391 -41.1439 -43.9952 -39.6145 -41.1439 -36.6371 -39.6145 -35.4461 -37.4406 -32.9814 -36.6371 -32.418 -32.9814 -28.8559 -32.418 -28.4759 -36.6371 -32.418 -35.4461 -31.5005 -32.418 -28.4759 -31.5005 -27.7772 -28.8559 -25.0357 -28.4759 -24.7932 -25.0357 -21.4901 -24.7932 -21.3479 -28.4759 -24.7932 -27.7772 -24.2677 -24.7932 -21.3479 -24.2677 -20.9583 -62.7984 -58.0514 -58.0514 -54.0479 -58.0514 -53.2717 -54.0479 -49.9283 -58.0514 -54.0479 -53.2717 -49.9283 -54.0479 -49.9283 -49.9283 -46.4097 -53.2717 -48.5626 -49.9283 -45.7945 -48.5626 -43.9952 -45.7945 -41.7212 -49.9283 -45.7945 -46.4097 -42.8131 -45.7945 -41.7212 -42.8131 -39.2123 -43.9952 -39.6145 -41.7212 -37.7598 -39.6145 -35.4461 -37.7598 -33.9436 -41.7212 -37.7598 -39.2123 -35.6617 -37.7598 -33.9436 -35.6617 -32.1991 -35.4461 -31.5005 -33.9436 -30.2913 -31.5005 -27.7772 -30.2913 -26.8106 -33.9436 -30.2913 -32.1991 -28.849 -30.2913 -26.8106 -28.849 -25.6248 -27.7772 -24.2677 -26.8106 -23.5005 -24.2677 -20.9583 -23.5005 -20.3543 -26.8106 -23.5005 -25.6248 -22.5318 -23.5005 -20.3543 -22.5318 -19.5689 -62.0563 -60.8961 -55.0438 -54.4019 -60.8961 -58.9176 -54.4019 -53.0037 -55.0438 -54.4019 -48.6462 -48.3887 -54.4019 -53.0037 -48.3887 -47.4438 -58.9176 -56.3178 -53.0037 -51.0085 -56.3178 -53.2717 -51.0085 -48.5626 -53.0037 -51.0085 -47.4438 -45.9391 -51.0085 -48.5626 -45.9391 -43.9952 -53.2717 -49.9283 -48.5626 -45.7945 -49.9283 -46.4097 -45.7945 -42.8131 -48.5626 -45.7945 -43.9952 -41.7212 -45.7945 -42.8131 -41.7212 -39.2123 -46.4097 -42.8131 -42.8131 -39.7076 -42.8131 -39.2123 -39.7076 -36.5489 -42.8131 -39.7076 -39.2123 -36.5489 -39.7076 -36.5489 -36.5489 -33.7968 -39.2123 -35.6617 -36.5489 -33.3913 -35.6617 -32.1991 -33.3913 -30.2745 -36.5489 -33.3913 -33.7968 -31.0082 -33.3913 -30.2745 -31.0082 -28.2231 -32.1991 -28.849 -30.2745 -27.2265 -28.849 -25.6248 -27.2265 -24.2649 -30.2745 -27.2265 -28.2231 -25.4706 -27.2265 -24.2649 -25.4706 -22.7713 -46.5975 -48.0887 -40.5647 -42.1008 -48.0887 -48.6462 -42.1008 -42.8347 -40.5647 -42.1008 -35.2152 -36.7338 -42.1008 -42.8347 -36.7338 -37.5663 -48.6462 -48.3887 -42.8347 -42.8539 -48.3887 -47.4438 -42.8539 -42.2565 -42.8347 -42.8539 -37.5663 -37.7769 -42.8539 -42.2565 -37.7769 -37.4406 -47.4438 -45.9391 -42.2565 -41.1439 -45.9391 -43.9952 -41.1439 -39.6145 -42.2565 -41.1439 -37.4406 -36.6371 -41.1439 -39.6145 -36.6371 -35.4461 -43.9952 -41.7212 -39.6145 -37.7598 -41.7212 -39.2123 -37.7598 -35.6617 -39.6145 -37.7598 -35.4461 -33.9436 -37.7598 -35.6617 -33.9436 -32.1991 -39.2123 -36.5489 -35.6617 -33.3913 -36.5489 -33.7968 -33.3913 -31.0082 -35.6617 -33.3913 -32.1991 -30.2745 -33.3913 -31.0082 -30.2745 -28.2231 -33.7968 -31.0082 -31.0082 -28.5613 -31.0082 -28.2231 -28.5613 -26.0892 -31.0082 -28.5613 -28.2231 -26.0892 -28.5613 -26.0892 -26.0892 -23.9094 -35.2152 -36.7338 -30.4615 -31.9184 -36.7338 -37.5663 -31.9184 -32.7913 -30.4615 -31.9184 -26.2228 -27.5875 -31.9184 -32.7913 -27.5875 -28.4574 -37.5663 -37.7769 -32.7913 -33.1266 -37.7769 -37.4406 -33.1266 -32.9814 -32.7913 -33.1266 -28.4574 -28.8659 -33.1266 -32.9814 -28.8659 -28.8559 -37.4406 -36.6371 -32.9814 -32.418 -36.6371 -35.4461 -32.418 -31.5005 -32.9814 -32.418 -28.8559 -28.4759 -32.418 -31.5005 -28.4759 -27.7772 -35.4461 -33.9436 -31.5005 -30.2913 -33.9436 -32.1991 -30.2913 -28.849 -31.5005 -30.2913 -27.7772 -26.8106 -30.2913 -28.849 -26.8106 -25.6248 -32.1991 -30.2745 -28.849 -27.2265 -30.2745 -28.2231 -27.2265 -25.4706 -28.849 -27.2265 -25.6248 -24.2649 -27.2265 -25.4706 -24.2649 -22.7713 -26.2228 -27.5875 -22.4255 -23.6777 -27.5875 -28.4574 -23.6777 -24.5128 -22.4255 -23.6777 -19.0039 -20.1302 -23.6777 -24.5128 -20.1302 -20.9077 -28.4574 -28.8659 -24.5128 -24.9548 -28.8659 -28.8559 -24.9548 -25.0357 -24.5128 -24.9548 -20.9077 -21.353 -24.9548 -25.0357 -21.353 -21.4901 -28.8559 -28.4759 -25.0357 -24.7932 -28.4759 -27.7772 -24.7932 -24.2677 -25.0357 -24.7932 -21.4901 -21.3479 -24.7932 -24.2677 -21.3479 -20.9583 -27.7772 -26.8106 -24.2677 -23.5005 -26.8106 -25.6248 -23.5005 -22.5318 -24.2677 -23.5005 -20.9583 -20.3543 -23.5005 -22.5318 -20.3543 -19.5689 0.998832 0.993107 -5.13068 -4.2324 0.993107 0.983733 -4.2324 -3.46361 -5.13068 -4.2324 -11.0754 -9.31099 -4.2324 -3.46361 -9.31099 -7.79366 0.983733 0.971695 -3.46361 -2.80005 0.971695 0.957743 -2.80005 -2.22199 -3.46361 -2.80005 -7.79366 -6.47788 -2.80005 -2.22199 -6.47788 -5.32746 -11.0754 -9.31099 -16.663 -14.1046 -9.31099 -7.79366 -14.1046 -11.8956 -16.663 -14.1046 -21.7444 -18.4924 -14.1046 -11.8956 -18.4924 -15.6712 -7.79366 -6.47788 -11.8956 -9.97294 -6.47788 -5.32746 -9.97294 -8.28486 -11.8956 -9.97294 -15.6712 -13.2051 -9.97294 -8.28486 -13.2051 -11.0313 -5.32746 -4.30933 -8.28486 -6.78765 -4.30933 -3.39906 -6.78765 -5.44523 -8.28486 -6.78765 -11.0313 -9.09687 -6.78765 -5.44523 -9.09687 -7.35768 -21.7444 -18.4924 -26.2026 -22.3774 -18.4924 -15.6712 -22.3774 -19.0401 -26.2026 -22.3774 -29.9568 -25.6899 -22.3774 -19.0401 -25.6899 -21.9431 -15.6712 -13.2051 -19.0401 -16.1083 -13.2051 -11.0313 -16.1083 -13.5122 -19.0401 -16.1083 -21.9431 -18.6322 -16.1083 -13.5122 -18.6322 -15.6852 -11.0313 -9.09687 -13.5122 -11.1928 -9.09687 -7.35768 -11.1928 -9.09978 -13.5122 -11.1928 -15.6852 -13.04 -11.1928 -9.09978 -13.04 -10.6432 -7.35768 -5.77498 -9.09978 -7.18937 -5.77498 -4.31644 -7.18937 -5.42393 -9.09978 -7.18937 -10.6432 -8.4478 -7.18937 -5.42393 -8.4478 -6.41287 -4.31644 -2.95269 -5.42393 -3.76984 -2.95269 -1.65796 -3.76984 -2.19654 -5.42393 -3.76984 -6.41287 -4.50155 -3.76984 -2.19654 -4.50155 -2.68019 -40.4572 -34.8416 -44.0751 -38.158 -34.8416 -29.9568 -38.158 -32.9637 -44.0751 -38.158 -46.5975 -40.5647 -38.158 -32.9637 -40.5647 -35.2152 -29.9568 -25.6899 -32.9637 -28.3891 -25.6899 -21.9431 -28.3891 -24.3425 -32.9637 -28.3891 -35.2152 -30.4615 -28.3891 -24.3425 -30.4615 -26.2228 -21.9431 -18.6322 -24.3425 -20.7434 -18.6322 -15.6852 -20.7434 -17.5211 -24.3425 -20.7434 -26.2228 -22.4255 -20.7434 -17.5211 -22.4255 -19.0039 -15.6852 -13.04 -17.5211 -14.6137 -13.04 -10.6432 -14.6137 -11.967 -17.5211 -14.6137 -19.0039 -15.899 -14.6137 -11.967 -15.899 -13.0584 -10.6432 -8.4478 -11.967 -9.5333 -8.4478 -6.41287 -9.5333 -7.26979 -11.967 -9.5333 -13.0584 -10.4349 -9.5333 -7.26979 -10.4349 -7.98578 -6.41287 -4.50155 -7.26979 -5.13796 -4.50155 -2.68019 -5.13796 -3.1024 -7.26979 -5.13796 -7.98578 -5.67218 -5.13796 -3.1024 -5.67218 -3.45791 -2.68019 -0.918117 -3.1024 -1.12968 -0.918117 0.815189 -1.12968 0.811923 -3.1024 -1.12968 -3.45791 -1.30876 -1.12968 0.811923 -1.30876 0.808195 -19.0039 -15.899 -20.1302 -16.8914 -15.899 -13.0584 -16.8914 -13.9121 -20.1302 -16.8914 -20.9077 -17.5947 -16.8914 -13.9121 -17.5947 -14.5297 -13.0584 -10.4349 -13.9121 -11.1475 -10.4349 -7.98578 -11.1475 -8.5564 -13.9121 -11.1475 -14.5297 -11.6715 -11.1475 -8.5564 -11.6715 -8.98136 -7.98578 -5.67218 -8.5564 -6.10074 -5.67218 -3.45791 -6.10074 -3.74468 -8.5564 -6.10074 -8.98136 -6.42309 -6.10074 -3.74468 -6.42309 -3.96217 -3.45791 -1.30876 -3.74468 -1.45411 -1.30876 0.808195 -1.45411 0.804023 -3.74468 -1.45411 -3.96217 -1.56546 -1.45411 0.804023 -1.56546 0.799424 -113.204 -104.644 -104.644 -97.8919 -104.644 -95.6264 -97.8919 -90.4643 -104.644 -97.8919 -95.6264 -90.4643 -97.8919 -90.4643 -90.4643 -84.4925 -20.9077 -17.5947 -21.353 -18.0206 -17.5947 -14.5297 -18.0206 -14.9193 -21.353 -18.0206 -21.4901 -18.1869 -18.0206 -14.9193 -18.1869 -15.0937 -14.5297 -11.6715 -14.9193 -12.0122 -11.6715 -8.98136 -12.0122 -9.26408 -14.9193 -12.0122 -15.0937 -12.1789 -12.0122 -9.26408 -12.1789 -9.41107 -8.98136 -6.42309 -9.26408 -6.64135 -6.42309 -3.96217 -6.64135 -4.11158 -9.26408 -6.64135 -9.41107 -6.7599 -6.64135 -4.11158 -6.7599 -4.1956 -3.96217 -1.56546 -4.11158 -1.64331 -1.56546 0.799424 -1.64331 0.79442 -4.11158 -1.64331 -4.1956 -1.68894 -1.64331 0.79442 -1.68894 0.789031 -21.4901 -18.1869 -21.3479 -18.1154 -18.1869 -15.0937 -18.1154 -15.0696 -21.3479 -18.1154 -20.9583 -17.8311 -18.1154 -15.0696 -17.8311 -14.8662 -15.0937 -12.1789 -15.0696 -12.1839 -12.1789 -9.41107 -12.1839 -9.43131 -15.0696 -12.1839 -14.8662 -12.0419 -12.1839 -9.43131 -12.0419 -9.33557 -9.41107 -6.7599 -9.43131 -6.78495 -6.7599 -4.1956 -6.78495 -4.21811 -9.43131 -6.78495 -9.33557 -6.72406 -6.78495 -4.21811 -6.72406 -4.18391 -4.1956 -1.68894 -4.21811 -1.70422 -1.68894 0.789031 -1.70422 0.783282 -4.21811 -1.70422 -4.18391 -1.69145 -1.70422 0.783282 -1.69145 0.777196 -20.9583 -17.8311 -20.3543 -17.3604 -17.8311 -14.8662 -17.3604 -14.5042 -20.3543 -17.3604 -19.5689 -16.7297 -17.3604 -14.5042 -16.7297 -14.0046 -14.8662 -12.0419 -14.5042 -11.7688 -12.0419 -9.33557 -11.7688 -9.13576 -14.5042 -11.7688 -14.0046 -11.381 -11.7688 -9.13576 -11.381 -8.84435 -9.33557 -6.72406 -9.13576 -6.5857 -6.72406 -4.18391 -6.5857 -4.09843 -9.13576 -6.5857 -8.84435 -6.3788 -6.5857 -4.09843 -6.3788 -3.9674 -4.18391 -1.69145 -4.09843 -1.65327 -1.69145 0.777196 -1.65327 0.770798 -4.09843 -1.65327 -3.9674 -1.59249 -1.65327 0.770798 -1.59249 0.764114 -25.6248 -22.5318 -24.2649 -21.3994 -22.5318 -19.5689 -21.3994 -18.6334 -24.2649 -21.3994 -22.7713 -20.1379 -21.3994 -18.6334 -20.1379 -17.5769 -19.5689 -16.7297 -18.6334 -15.9649 -16.7297 -14.0046 -15.9649 -13.3883 -18.6334 -15.9649 -17.5769 -15.09 -15.9649 -13.3883 -15.09 -12.675 -14.0046 -11.381 -13.3883 -10.895 -11.381 -8.84435 -10.895 -8.47386 -13.3883 -10.895 -12.675 -10.3265 -10.895 -8.47386 -10.3265 -8.03644 -8.84435 -6.3788 -8.47386 -6.1124 -6.3788 -3.9674 -6.1124 -3.79669 -8.47386 -6.1124 -8.03644 -5.79533 -6.1124 -3.79669 -5.79533 -3.59205 -3.9674 -1.59249 -3.79669 -1.51197 -1.59249 0.764114 -1.51197 0.75717 -3.79669 -1.51197 -3.59205 -1.41453 -1.51197 0.75717 -1.41453 0.749991 -40.4572 -44.0751 -34.8416 -38.158 -44.0751 -46.5975 -38.158 -40.5647 -34.8416 -38.158 -29.9568 -32.9637 -38.158 -40.5647 -32.9637 -35.2152 -28.2231 -25.4706 -26.0892 -23.6214 -25.4706 -22.7713 -23.6214 -21.1793 -26.0892 -23.6214 -23.9094 -21.712 -23.6214 -21.1793 -21.712 -19.5189 -22.7713 -20.1379 -21.1793 -18.7778 -20.1379 -17.5769 -18.7778 -16.4257 -21.1793 -18.7778 -19.5189 -17.3457 -18.7778 -16.4257 -17.3457 -15.2029 -17.5769 -15.09 -16.4257 -14.1273 -15.09 -12.675 -14.1273 -11.8831 -16.4257 -14.1273 -15.2029 -13.0965 -14.1273 -11.8831 -13.0965 -11.0289 -12.675 -10.3265 -11.8831 -9.69019 -10.3265 -8.03644 -9.69019 -7.54354 -11.8831 -9.69019 -11.0289 -8.99956 -9.69019 -7.54354 -8.99956 -7.00558 -8.03644 -5.79533 -7.54354 -5.43595 -5.79533 -3.59205 -5.43595 -3.35893 -7.54354 -5.43595 -7.00558 -5.04199 -5.43595 -3.35893 -5.04199 -3.1024 -3.59205 -1.41453 -3.35893 -1.30287 -1.41453 0.749991 -1.30287 0.742602 -3.35893 -1.30287 -3.1024 -1.17948 -1.30287 0.742602 -1.17948 0.73503 0.998832 -5.13068 0.993107 -4.2324 -5.13068 -11.0754 -4.2324 -9.31099 0.993107 -4.2324 0.983733 -3.46361 -4.2324 -9.31099 -3.46361 -7.79366 -11.0754 -16.663 -9.31099 -14.1046 -16.663 -21.7444 -14.1046 -18.4924 -9.31099 -14.1046 -7.79366 -11.8956 -14.1046 -18.4924 -11.8956 -15.6712 -21.7444 -26.2026 -18.4924 -22.3774 -26.2026 -29.9568 -22.3774 -25