# vtk DataFile Version 3.0
#This file was generated by the deal.II library on 2020/5/26 at 23:29:09
ASCII
DATASET UNSTRUCTURED_GRID

POINTS 25252 double
0.25 0.25 0
0.28125 0.25 0
0.25 0.28125 0
0.28125 0.28125 0
0.21875 0.21875 0
0.25 0.21875 0
0.21875 0.25 0
0.25 0.25 0
0.78125 0.0625 0
0.8125 0.0625 0
0.78125 0.09375 0
0.8125 0.09375 0
0.8125 0.125 0
0.84375 0.125 0
0.8125 0.15625 0
0.84375 0.15625 0
0.84375 0.125 0
0.875 0.125 0
0.84375 0.15625 0
0.875 0.15625 0
0.84375 0.15625 0
0.875 0.15625 0
0.84375 0.1875 0
0.875 0.1875 0
0.875 0.125 0
0.90625 0.125 0
0.875 0.15625 0
0.90625 0.15625 0
0.90625 0.125 0
0.9375 0.125 0
0.90625 0.15625 0
0.9375 0.15625 0
0.875 0.15625 0
0.90625 0.15625 0
0.875 0.1875 0
0.90625 0.1875 0
0.90625 0.15625 0
0.9375 0.15625 0
0.90625 0.1875 0
0.9375 0.1875 0
0.875 0.1875 0
0.90625 0.1875 0
0.875 0.21875 0
0.90625 0.21875 0
0.90625 0.1875 0
0.9375 0.1875 0
0.90625 0.21875 0
0.9375 0.21875 0
0.90625 0.21875 0
0.9375 0.21875 0
0.90625 0.25 0
0.9375 0.25 0
0.9375 0.1875 0
0.96875 0.1875 0
0.9375 0.21875 0
0.96875 0.21875 0
0.96875 0.1875 0
1 0.1875 0
0.96875 0.21875 0
1 0.21875 0
0.9375 0.21875 0
0.96875 0.21875 0
0.9375 0.25 0
0.96875 0.25 0
0.96875 0.21875 0
1 0.21875 0
0.96875 0.25 0
1 0.25 0
0.96875 0.25 0
1 0.25 0
0.96875 0.28125 0
1 0.28125 0
0.9375 0.53125 0
0.96875 0.53125 0
0.9375 0.5625 0
0.96875 0.5625 0
0.96875 0.53125 0
1 0.53125 0
0.96875 0.5625 0
1 0.5625 0
0.84375 0.59375 0
0.875 0.59375 0
0.84375 0.625 0
0.875 0.625 0
0.875 0.5625 0
0.90625 0.5625 0
0.875 0.59375 0
0.90625 0.59375 0
0.90625 0.5625 0
0.9375 0.5625 0
0.90625 0.59375 0
0.9375 0.59375 0
0.875 0.59375 0
0.90625 0.59375 0
0.875 0.625 0
0.90625 0.625 0
0.90625 0.59375 0
0.9375 0.59375 0
0.90625 0.625 0
0.9375 0.625 0
0.9375 0.5625 0
0.96875 0.5625 0
0.9375 0.59375 0
0.96875 0.59375 0
0.96875 0.5625 0
1 0.5625 0
0.96875 0.59375 0
1 0.59375 0
0.9375 0.59375 0
0.96875 0.59375 0
0.9375 0.625 0
0.96875 0.625 0
0.96875 0.59375 0
1 0.59375 0
0.96875 0.625 0
1 0.625 0
0.75 0.65625 0
0.78125 0.65625 0
0.75 0.6875 0
0.78125 0.6875 0
0.78125 0.65625 0
0.8125 0.65625 0
0.78125 0.6875 0
0.8125 0.6875 0
0.8125 0.625 0
0.84375 0.625 0
0.8125 0.65625 0
0.84375 0.65625 0
0.84375 0.625 0
0.875 0.625 0
0.84375 0.65625 0
0.875 0.65625 0
0.8125 0.65625 0
0.84375 0.65625 0
0.8125 0.6875 0
0.84375 0.6875 0
0.84375 0.65625 0
0.875 0.65625 0
0.84375 0.6875 0
0.875 0.6875 0
0.71875 0.6875 0
0.75 0.6875 0
0.71875 0.71875 0
0.75 0.71875 0
0.6875 0.71875 0
0.71875 0.71875 0
0.6875 0.75 0
0.71875 0.75 0
0.71875 0.71875 0
0.75 0.71875 0
0.71875 0.75 0
0.75 0.75 0
0.75 0.6875 0
0.78125 0.6875 0
0.75 0.71875 0
0.78125 0.71875 0
0.78125 0.6875 0
0.8125 0.6875 0
0.78125 0.71875 0
0.8125 0.71875 0
0.75 0.71875 0
0.78125 0.71875 0
0.75 0.75 0
0.78125 0.75 0
0.78125 0.71875 0
0.8125 0.71875 0
0.78125 0.75 0
0.8125 0.75 0
0.0625 0.78125 0
0.09375 0.78125 0
0.0625 0.8125 0
0.09375 0.8125 0
0.65625 0.75 0
0.6875 0.75 0
0.65625 0.78125 0
0.6875 0.78125 0
0.65625 0.78125 0
0.6875 0.78125 0
0.65625 0.8125 0
0.6875 0.8125 0
0.6875 0.75 0
0.71875 0.75 0
0.6875 0.78125 0
0.71875 0.78125 0
0.71875 0.75 0
0.75 0.75 0
0.71875 0.78125 0
0.75 0.78125 0
0.6875 0.78125 0
0.71875 0.78125 0
0.6875 0.8125 0
0.71875 0.8125 0
0.71875 0.78125 0
0.75 0.78125 0
0.71875 0.8125 0
0.75 0.8125 0
0.125 0.8125 0
0.15625 0.8125 0
0.125 0.84375 0
0.15625 0.84375 0
0.125 0.84375 0
0.15625 0.84375 0
0.125 0.875 0
0.15625 0.875 0
0.15625 0.84375 0
0.1875 0.84375 0
0.15625 0.875 0
0.1875 0.875 0
0.59375 0.84375 0
0.625 0.84375 0
0.59375 0.875 0
0.625 0.875 0
0.625 0.8125 0
0.65625 0.8125 0
0.625 0.84375 0
0.65625 0.84375 0
0.65625 0.8125 0
0.6875 0.8125 0
0.65625 0.84375 0
0.6875 0.84375 0
0.625 0.84375 0
0.65625 0.84375 0
0.625 0.875 0
0.65625 0.875 0
0.65625 0.84375 0
0.6875 0.84375 0
0.65625 0.875 0
0.6875 0.875 0
0.125 0.875 0
0.15625 0.875 0
0.125 0.90625 0
0.15625 0.90625 0
0.15625 0.875 0
0.1875 0.875 0
0.15625 0.90625 0
0.1875 0.90625 0
0.125 0.90625 0
0.15625 0.90625 0
0.125 0.9375 0
0.15625 0.9375 0
0.15625 0.90625 0
0.1875 0.90625 0
0.15625 0.9375 0
0.1875 0.9375 0
0.1875 0.875 0
0.21875 0.875 0
0.1875 0.90625 0
0.21875 0.90625 0
0.1875 0.90625 0
0.21875 0.90625 0
0.1875 0.9375 0
0.21875 0.9375 0
0.21875 0.90625 0
0.25 0.90625 0
0.21875 0.9375 0
0.25 0.9375 0
0.5625 0.875 0
0.59375 0.875 0
0.5625 0.90625 0
0.59375 0.90625 0
0.59375 0.875 0
0.625 0.875 0
0.59375 0.90625 0
0.625 0.90625 0
0.5625 0.90625 0
0.59375 0.90625 0
0.5625 0.9375 0
0.59375 0.9375 0
0.59375 0.90625 0
0.625 0.90625 0
0.59375 0.9375 0
0.625 0.9375 0
0.1875 0.9375 0
0.21875 0.9375 0
0.1875 0.96875 0
0.21875 0.96875 0
0.21875 0.9375 0
0.25 0.9375 0
0.21875 0.96875 0
0.25 0.96875 0
0.1875 0.96875 0
0.21875 0.96875 0
0.1875 1 0
0.21875 1 0
0.21875 0.96875 0
0.25 0.96875 0
0.21875 1 0
0.25 1 0
0.25 0.96875 0
0.28125 0.96875 0
0.25 1 0
0.28125 1 0
0.53125 0.9375 0
0.5625 0.9375 0
0.53125 0.96875 0
0.5625 0.96875 0
0.53125 0.96875 0
0.5625 0.96875 0
0.53125 1 0
0.5625 1 0
0.5625 0.9375 0
0.59375 0.9375 0
0.5625 0.96875 0
0.59375 0.96875 0
0.59375 0.9375 0
0.625 0.9375 0
0.59375 0.96875 0
0.625 0.96875 0
0.5625 0.96875 0
0.59375 0.96875 0
0.5625 1 0
0.59375 1 0
0.59375 0.96875 0
0.625 0.96875 0
0.59375 1 0
0.625 1 0
0.75 0 0
0.78125 0 0
0.75 0.03125 0
0.78125 0.03125 0
0.78125 0 0
0.8125 0 0
0.78125 0.03125 0
0.8125 0.03125 0
0.78125 0.03125 0
0.8125 0.03125 0
0.78125 0.0625 0
0.8125 0.0625 0
0.8125 0 0
0.84375 0 0
0.8125 0.03125 0
0.84375 0.03125 0
0.84375 0 0
0.875 0 0
0.84375 0.03125 0
0.875 0.03125 0
0.8125 0.03125 0
0.84375 0.03125 0
0.8125 0.0625 0
0.84375 0.0625 0
0.84375 0.03125 0
0.875 0.03125 0
0.84375 0.0625 0
0.875 0.0625 0
0.8125 0.0625 0
0.84375 0.0625 0
0.8125 0.09375 0
0.84375 0.09375 0
0.84375 0.0625 0
0.875 0.0625 0
0.84375 0.09375 0
0.875 0.09375 0
0.8125 0.09375 0
0.84375 0.09375 0
0.8125 0.125 0
0.84375 0.125 0
0.84375 0.09375 0
0.875 0.09375 0
0.84375 0.125 0
0.875 0.125 0
0.875 0.0625 0
0.90625 0.0625 0
0.875 0.09375 0
0.90625 0.09375 0
0.90625 0.0625 0
0.9375 0.0625 0
0.90625 0.09375 0
0.9375 0.09375 0
0.875 0.09375 0
0.90625 0.09375 0
0.875 0.125 0
0.90625 0.125 0
0.90625 0.09375 0
0.9375 0.09375 0
0.90625 0.125 0
0.9375 0.125 0
0.9375 0.125 0
0.96875 0.125 0
0.9375 0.15625 0
0.96875 0.15625 0
0.96875 0.125 0
1 0.125 0
0.96875 0.15625 0
1 0.15625 0
0.9375 0.15625 0
0.96875 0.15625 0
0.9375 0.1875 0
0.96875 0.1875 0
0.96875 0.15625 0
1 0.15625 0
0.96875 0.1875 0
1 0.1875 0
0.875 0.625 0
0.90625 0.625 0
0.875 0.65625 0
0.90625 0.65625 0
0.90625 0.625 0
0.9375 0.625 0
0.90625 0.65625 0
0.9375 0.65625 0
0.875 0.65625 0
0.90625 0.65625 0
0.875 0.6875 0
0.90625 0.6875 0
0.90625 0.65625 0
0.9375 0.65625 0
0.90625 0.6875 0
0.9375 0.6875 0
0.9375 0.625 0
0.96875 0.625 0
0.9375 0.65625 0
0.96875 0.65625 0
0.96875 0.625 0
1 0.625 0
0.96875 0.65625 0
1 0.65625 0
0.9375 0.65625 0
0.96875 0.65625 0
0.9375 0.6875 0
0.96875 0.6875 0
0.96875 0.65625 0
1 0.65625 0
0.96875 0.6875 0
1 0.6875 0
0.8125 0.6875 0
0.84375 0.6875 0
0.8125 0.71875 0
0.84375 0.71875 0
0.84375 0.6875 0
0.875 0.6875 0
0.84375 0.71875 0
0.875 0.71875 0
0.8125 0.71875 0
0.84375 0.71875 0
0.8125 0.75 0
0.84375 0.75 0
0.84375 0.71875 0
0.875 0.71875 0
0.84375 0.75 0
0.875 0.75 0
0.875 0.6875 0
0.90625 0.6875 0
0.875 0.71875 0
0.90625 0.71875 0
0.90625 0.6875 0
0.9375 0.6875 0
0.90625 0.71875 0
0.9375 0.71875 0
0.875 0.71875 0
0.90625 0.71875 0
0.875 0.75 0
0.90625 0.75 0
0.90625 0.71875 0
0.9375 0.71875 0
0.90625 0.75 0
0.9375 0.75 0
0.9375 0.6875 0
0.96875 0.6875 0
0.9375 0.71875 0
0.96875 0.71875 0
0.96875 0.6875 0
1 0.6875 0
0.96875 0.71875 0
1 0.71875 0
0.9375 0.71875 0
0.96875 0.71875 0
0.9375 0.75 0
0.96875 0.75 0
0.96875 0.71875 0
1 0.71875 0
0.96875 0.75 0
1 0.75 0
0 0.75 0
0.03125 0.75 0
0 0.78125 0
0.03125 0.78125 0
0 0.78125 0
0.03125 0.78125 0
0 0.8125 0
0.03125 0.8125 0
0.03125 0.78125 0
0.0625 0.78125 0
0.03125 0.8125 0
0.0625 0.8125 0
0.75 0.75 0
0.78125 0.75 0
0.75 0.78125 0
0.78125 0.78125 0
0.78125 0.75 0
0.8125 0.75 0
0.78125 0.78125 0
0.8125 0.78125 0
0.75 0.78125 0
0.78125 0.78125 0
0.75 0.8125 0
0.78125 0.8125 0
0.78125 0.78125 0
0.8125 0.78125 0
0.78125 0.8125 0
0.8125 0.8125 0
0.8125 0.75 0
0.84375 0.75 0
0.8125 0.78125 0
0.84375 0.78125 0
0.84375 0.75 0
0.875 0.75 0
0.84375 0.78125 0
0.875 0.78125 0
0.8125 0.78125 0
0.84375 0.78125 0
0.8125 0.8125 0
0.84375 0.8125 0
0.84375 0.78125 0
0.875 0.78125 0
0.84375 0.8125 0
0.875 0.8125 0
0 0.8125 0
0.03125 0.8125 0
0 0.84375 0
0.03125 0.84375 0
0.03125 0.8125 0
0.0625 0.8125 0
0.03125 0.84375 0
0.0625 0.84375 0
0 0.84375 0
0.03125 0.84375 0
0 0.875 0
0.03125 0.875 0
0.03125 0.84375 0
0.0625 0.84375 0
0.03125 0.875 0
0.0625 0.875 0
0.0625 0.8125 0
0.09375 0.8125 0
0.0625 0.84375 0
0.09375 0.84375 0
0.09375 0.8125 0
0.125 0.8125 0
0.09375 0.84375 0
0.125 0.84375 0
0.0625 0.84375 0
0.09375 0.84375 0
0.0625 0.875 0
0.09375 0.875 0
0.09375 0.84375 0
0.125 0.84375 0
0.09375 0.875 0
0.125 0.875 0
0.6875 0.8125 0
0.71875 0.8125 0
0.6875 0.84375 0
0.71875 0.84375 0
0.71875 0.8125 0
0.75 0.8125 0
0.71875 0.84375 0
0.75 0.84375 0
0.6875 0.84375 0
0.71875 0.84375 0
0.6875 0.875 0
0.71875 0.875 0
0.71875 0.84375 0
0.75 0.84375 0
0.71875 0.875 0
0.75 0.875 0
0.75 0.8125 0
0.78125 0.8125 0
0.75 0.84375 0
0.78125 0.84375 0
0.78125 0.8125 0
0.8125 0.8125 0
0.78125 0.84375 0
0.8125 0.84375 0
0.75 0.84375 0
0.78125 0.84375 0
0.75 0.875 0
0.78125 0.875 0
0.78125 0.84375 0
0.8125 0.84375 0
0.78125 0.875 0
0.8125 0.875 0
0.0625 0.875 0
0.09375 0.875 0
0.0625 0.90625 0
0.09375 0.90625 0
0.09375 0.875 0
0.125 0.875 0
0.09375 0.90625 0
0.125 0.90625 0
0.0625 0.90625 0
0.09375 0.90625 0
0.0625 0.9375 0
0.09375 0.9375 0
0.09375 0.90625 0
0.125 0.90625 0
0.09375 0.9375 0
0.125 0.9375 0
0.625 0.875 0
0.65625 0.875 0
0.625 0.90625 0
0.65625 0.90625 0
0.65625 0.875 0
0.6875 0.875 0
0.65625 0.90625 0
0.6875 0.90625 0
0.625 0.90625 0
0.65625 0.90625 0
0.625 0.9375 0
0.65625 0.9375 0
0.65625 0.90625 0
0.6875 0.90625 0
0.65625 0.9375 0
0.6875 0.9375 0
0.6875 0.875 0
0.71875 0.875 0
[...]
POINT_DATA 25252
SCALARS solution double 1
LOOKUP_TABLE default
0.292512 0.425599 0.425599 0.526546 -0.0424078 0.146599 0.146599 0.292512 0.93316 0.91838 0.927789 0.913666 0.908526 0.89429 0.903016 0.88933 0.89429 0.879614 0.88933 0.8752 0.88933 0.8752 0.884003 0.870382 0.879614 0.864717 0.8752 0.860842 0.864717 0.849774 0.860842 0.84643 0.8752 0.860842 0.870382 0.856535 0.860842 0.84643 0.856535 0.842632 0.870382 0.856535 0.865194 0.851825 0.856535 0.842632 0.851825 0.838404 0.851825 0.838404 0.846739 0.833769 0.842632 0.828812 0.838404 0.825066 0.828812 0.815189 0.825066 0.811923 0.838404 0.825066 0.833769 0.820885 0.825066 0.811923 0.820885 0.808195 0.820885 0.808195 0.816289 0.804023 0.77719 0.76709 0.769626 0.759722 0.76709 0.75717 0.759722 0.749991 0.791651 0.781671 0.783244 0.773427 0.789777 0.77966 0.781671 0.771733 0.77966 0.769626 0.771733 0.761882 0.781671 0.771733 0.773427 0.763659 0.771733 0.761882 0.763659 0.75398 0.769626 0.759722 0.761882 0.752159 0.759722 0.749991 0.752159 0.742602 0.761882 0.752159 0.75398 0.744425 0.752159 0.742602 0.744425 0.73503 0.803668 0.794063 0.79465 0.785161 0.794063 0.784402 0.785161 0.775634 0.793071 0.783244 0.784402 0.774722 0.783244 0.773427 0.774722 0.765062 0.784402 0.774722 0.775634 0.766102 0.774722 0.765062 0.766102 0.756595 0.804066 0.79465 0.794843 0.785538 0.804066 0.794843 0.79465 0.785538 0.794843 0.785538 0.785538 0.776356 0.79465 0.785161 0.785538 0.776176 0.785161 0.775634 0.776176 0.766788 0.785538 0.776176 0.776356 0.76713 0.776176 0.766788 0.76713 0.757884 0.93316 0.927789 0.91838 0.913666 0.803668 0.79465 0.794063 0.785161 0.794063 0.785161 0.784402 0.775634 0.79465 0.785538 0.785161 0.776176 0.785538 0.776356 0.776176 0.76713 0.785161 0.776176 0.775634 0.766788 0.776176 0.76713 0.766788 0.757884 0.908526 0.903016 0.89429 0.88933 0.89429 0.88933 0.879614 0.8752 0.88933 0.884003 0.8752 0.870382 0.791651 0.783244 0.781671 0.773427 0.793071 0.784402 0.783244 0.774722 0.784402 0.775634 0.774722 0.766102 0.783244 0.774722 0.773427 0.765062 0.774722 0.766102 0.765062 0.756595 0.879614 0.8752 0.864717 0.860842 0.8752 0.870382 0.860842 0.856535 0.864717 0.860842 0.849774 0.84643 0.860842 0.856535 0.84643 0.842632 0.870382 0.865194 0.856535 0.851825 0.856535 0.851825 0.842632 0.838404 0.851825 0.846739 0.838404 0.833769 0.789777 0.781671 0.77966 0.771733 0.781671 0.773427 0.771733 0.763659 0.77966 0.771733 0.769626 0.761882 0.771733 0.763659 0.761882 0.75398 0.842632 0.838404 0.828812 0.825066 0.838404 0.833769 0.825066 0.820885 0.828812 0.825066 0.815189 0.811923 0.825066 0.820885 0.811923 0.808195 0.820885 0.816289 0.808195 0.804023 0.77719 0.769626 0.76709 0.759722 0.76709 0.759722 0.75717 0.749991 0.769626 0.761882 0.759722 0.752159 0.761882 0.75398 0.752159 0.744425 0.759722 0.752159 0.749991 0.742602 0.752159 0.744425 0.742602 0.73503 0.957743 0.942452 0.952576 0.938076 0.942452 0.926262 0.938076 0.922602 0.938076 0.922602 0.93316 0.91838 0.926262 0.909508 0.922602 0.906502 0.909508 0.892447 0.906502 0.890047 0.922602 0.906502 0.91838 0.902927 0.906502 0.890047 0.902927 0.887079 0.91838 0.902927 0.913666 0.898838 0.902927 0.887079 0.898838 0.883587 0.913666 0.898838 0.908526 0.89429 0.898838 0.883587 0.89429 0.879614 0.887079 0.87105 0.883587 0.86813 0.87105 0.855007 0.86813 0.852641 0.883587 0.86813 0.879614 0.864717 0.86813 0.852641 0.864717 0.849774 0.849774 0.834924 0.84643 0.832104 0.834924 0.820278 0.832104 0.817978 0.84643 0.832104 0.842632 0.828812 0.832104 0.817978 0.828812 0.815189 0.773427 0.763659 0.765062 0.755456 0.763659 0.75398 0.755456 0.74594 0.765062 0.755456 0.756595 0.747146 0.755456 0.74594 0.747146 0.737784 0.75398 0.744425 0.74594 0.736544 0.744425 0.73503 0.736544 0.727297 0.74594 0.736544 0.737784 0.728537 0.736544 0.727297 0.728537 0.719429 0.775634 0.766102 0.766788 0.757402 0.766102 0.756595 0.757402 0.748047 0.766788 0.757402 0.757884 0.748645 0.757402 0.748047 0.748645 0.739436 0.756595 0.747146 0.748047 0.738749 0.747146 0.737784 0.738749 0.729533 0.748047 0.738749 0.739436 0.730283 0.738749 0.729533 0.730283 0.721207 0.737784 0.728537 0.729533 0.720426 0.728537 0.719429 0.720426 0.711447 0.729533 0.720426 0.721207 0.712231 0.720426 0.711447 0.712231 0.703375 0.957743 0.952576 0.942452 0.938076 0.942452 0.938076 0.926262 0.922602 0.938076 0.93316 0.922602 0.91838 0.776356 0.76713 0.76713 0.758044 0.76713 0.757884 0.758044 0.748943 0.76713 0.758044 0.757884 0.748943 0.758044 0.748943 0.748943 0.739985 0.757884 0.748645 0.748943 0.739848 0.748645 0.739436 0.739848 0.730783 0.748943 0.739848 0.739985 0.731033 0.739848 0.730783 0.731033 0.722106 0.926262 0.922602 0.909508 0.906502 0.922602 0.91838 0.906502 0.902927 0.909508 0.906502 0.892447 0.890047 0.906502 0.902927 0.890047 0.887079 0.91838 0.913666 0.902927 0.898838 0.913666 0.908526 0.898838 0.89429 0.902927 0.898838 0.887079 0.883587 0.898838 0.89429 0.883587 0.879614 0.775634 0.766788 0.766102 0.757402 0.766788 0.757884 0.757402 0.748645 0.766102 0.757402 0.756595 0.748047 0.757402 0.748645 0.748047 0.739436 0.757884 0.748943 0.748645 0.739848 0.748943 0.739985 0.739848 0.731033 0.748645 0.739848 0.739436 0.730783 0.739848 0.731033 0.730783 0.722106 0.887079 0.883587 0.87105 0.86813 0.883587 0.879614 0.86813 0.864717 0.87105 0.86813 0.855007 0.852641 0.86813 0.864717 0.852641 0.849774 0.773427 0.765062 0.763659 0.755456 0.765062 0.756595 0.755456 0.747146 0.763659 0.755456 0.75398 0.74594 0.755456 0.747146 0.74594 0.737784 0.756595 0.748047 0.747146 0.738749 0.748047 0.739436 0.738749 0.730283 0.747146 0.738749 0.737784 0.729533 0.738749 0.730283 0.729533 0.721207 0.849774 0.84643 0.834924 0.832104 0.84643 0.842632 0.832104 0.828812 0.834924 0.832104 0.820278 0.817978 0.832104 0.828812 0.817978 0.815189 0.75398 0.74594 0.744425 0.736544 0.74594 0.737784 0.736544 0.728537 0.744425 0.736544 0.73503 0.727297 0.736544 0.728537 0.727297 0.719429 0.737784 0.729533 0.728537 0.720426 0.729533 0.721207 0.720426 0.712231 0.728537 0.720426 0.719429 0.711447 0.720426 0.712231 0.711447 0.703375 0.892447 0.875276 0.890047 0.873443 0.875276 0.858142 0.873443 0.856848 0.890047 0.873443 0.887079 0.87105 0.873443 0.856848 0.87105 0.855007 0.858142 0.841157 0.856848 0.840385 0.841157 0.824405 0.840385 0.824146 0.856848 0.840385 0.855007 0.83908 0.840385 0.824146 0.83908 0.823369 0.855007 0.83908 0.852641 0.837255 0.83908 0.823369 0.837255 0.822077 0.852641 0.837255 0.849774 0.834924 0.837255 0.822077 0.834924 0.820278 0.739436 0.730283 0.730783 0.721769 0.730283 0.721207 0.721769 0.712826 0.730783 0.721769 0.722106 0.713225 0.721769 0.712826 0.713225 0.704409 0.721207 0.712231 0.712826 0.703974 0.712231 0.703375 0.703974 0.695231 0.712826 0.703974 0.704409 0.695674 0.703974 0.695231 0.695674 0.687037 0.739985 0.731033 0.731033 0.722219 0.731033 0.722106 0.722219 0.713426 0.731033 0.722219 0.722106 0.713426 0.722219 0.713426 0.713426 0.704759 0.722106 0.713225 0.713426 0.704671 0.713225 0.704409 0.704671 0.695973 0.713426 0.704671 0.704759 0.696124 0.704671 0.695973 0.696124 0.687537 0.704409 0.695674 0.695973 0.687347 0.695674 0.687037 0.687347 0.678809 0.695973 0.687347 0.687537 0.679012 0.687347 0.678809 0.679012 0.670565 0.892447 0.890047 0.875276 0.873443 0.890047 0.887079 0.873443 0.87105 0.875276 0.873443 0.858142 0.856848 0.873443 0.87105 0.856848 0.855007 0.739436 0.730783 0.730283 0.721769 0.730783 0.722106 0.721769 0.713225 0.730283 0.721769 0.721207 0.712826 0.721769 0.713225 0.712826 0.704409 0.722106 0.713426 0.713225 0.704671 0.713426 0.704759 0.704671 0.696124 0.713225 0.704671 0.704409 0.695973 0.704671 0.696124 0.695973 0.687537 0.704759 0.696124 0.696124 0.6876 0.696124 0.687537 0.6876 0.679116 0.696124 0.6876 0.687537 0.679116 0.6876 0.679116 0.679116 0.670725 0.687537 0.679012 0.679116 0.670685 0.679012 0.670565 0.670685 0.662321 0.679116 0.670685 0.670725 0.66238 0.670685 0.662321 0.66238 0.654091 0.858142 0.856848 0.841157 0.840385 0.856848 0.855007 0.840385 0.83908 0.841157 0.840385 0.824405 0.824146 0.840385 0.83908 0.824146 0.823369 0.855007 0.852641 0.83908 0.837255 0.852641 0.849774 0.837255 0.834924 0.83908 0.837255 0.823369 0.822077 0.837255 0.834924 0.822077 0.820278 0.721207 0.712826 0.712231 0.703974 0.712826 0.704409 0.703974 0.695674 0.712231 0.703974 0.703375 0.695231 0.703974 0.695674 0.695231 0.687037 0.704409 0.695973 0.695674 0.687347 0.695973 0.687537 0.687347 0.679012 0.695674 0.687347 0.687037 0.678809 0.687347 0.679012 0.678809 0.670565 0.687537 0.679116 0.679012 0.670685 0.679116 0.670725 0.670685 0.66238 0.679012 0.670685 0.670565 0.662321 0.670685 0.66238 0.662321 0.654091 0.670725 0.66238 0.66238 0.65411 0.66238 0.654091 0.65411 0.645889 0.66238 0.65411 0.654091 0.645889 0.65411 0.645889 0.645889 0.637725 -0.0793664 0.0401982 -0.00482558 0.104069 0.0401982 0.151498 0.104069 0.205603 0.151498 0.253863 0.205603 0.299205 -0.00482558 0.104069 0.0709713 0.169223 0.104069 0.205603 0.169223 0.261035 0.0709713 0.169223 0.146599 0.234442 0.169223 0.261035 0.234442 0.316761 0.205603 0.299205 0.261035 0.345912 0.299205 0.384661 0.345912 0.423646 0.261035 0.345912 0.316761 0.393111 0.345912 0.423646 0.393111 0.463275 -0.0793664 -0.00482558 0.0401982 0.104069 0.0401982 0.104069 0.151498 0.205603 0.151498 0.205603 0.253863 0.299205 -0.00482558 0.0709713 0.104069 0.169223 0.0709713 0.146599 0.169223 0.234442 0.104069 0.169223 0.205603 0.261035 0.169223 0.234442 0.261035 0.316761 0.205603 0.261035 0.299205 0.345912 0.261035 0.316761 0.345912 0.393111 0.299205 0.345912 0.384661 0.423646 0.345912 0.393111 0.423646 0.463275 -0.251708 -0.140991 -0.140991 -0.0424078 -0.240111 -0.120072 -0.140991 -0.0328581 -0.120072 -0.00482558 -0.0328581 0.0709713 -0.140991 -0.0328581 -0.0424078 0.0539631 -0.0328581 0.0709713 0.0539631 0.146599 -0.240111 -0.140991 -0.120072 -0.0328581 -0.140991 -0.0424078 -0.0328581 0.0539631 -0.120072 -0.0328581 -0.00482558 0.0709713 -0.0328581 0.0539631 0.0709713 0.146599 0.93307 0.932065 0.929902 0.928729 0.932065 0.93026 0.928729 0.926802 0.929902 0.928729 0.926798 0.925444 0.928729 0.926802 0.925444 0.923382 0.933618 0.952486 0.924191 0.943765 0.924191 0.943765 0.915542 0.935657 0.915542 0.935657 0.907751 0.928236 0.907751 0.928236 0.900881 0.92156 0.952486 0.967452 0.943765 0.959381 0.967452 0.979031 0.959381 0.971559 0.943765 0.959381 0.935657 0.951787 0.959381 0.971559 0.951787 0.96445 0.979031 0.98767 0.971559 0.98075 0.98767 0.99376 0.98075 0.98735 0.971559 0.98075 0.96445 0.9741 0.98075 0.98735 0.9741 0.981132 0.935657 0.951787 0.928236 0.944737 0.951787 0.96445 0.944737 0.957766 0.928236 0.944737 0.92156 0.938283 0.944737 0.957766 0.938283 0.951554 0.96445 0.9741 0.957766 0.967773 0.9741 0.981132 0.967773 0.975153 0.957766 0.967773 0.951554 0.961815 0.967773 0.975153 0.961815 0.969455 0.99376 0.997643 0.98735 0.991704 0.997643 0.999616 0.991704 0.994113 0.98735 0.991704 0.981132 0.985892 0.991704 0.994113 0.985892 0.988682 0.999616 0.999937 0.994113 0.994837 0.999937 0.998832 0.994837 0.994106 0.994113 0.994837 0.988682 0.989765 0.994837 0.994106 0.989765 0.989372 0.981132 0.985892 0.975153 0.980249 0.985892 0.988682 0.980249 0.983362 0.975153 0.980249 0.969455 0.974814 0.980249 0.983362 0.974814 0.978189 0.988682 0.989765 0.983362 0.984756 0.989765 0.989372 0.984756 0.984659 0.983362 0.984756 0.978189 0.979841 0.984756 0.984659 0.979841 0.979999 0.875673 0.900881 0.869817 0.894972 0.900881 0.92156 0.894972 0.915668 0.869817 0.894972 0.865144 0.89004 0.894972 0.915668 0.89004 0.910582 0.835292 0.865144 0.832403 0.861641 0.832403 0.861641 0.830857 0.859271 0.865144 0.89004 0.861641 0.886084 0.89004 0.910582 0.886084 0.906304 0.861641 0.886084 0.859271 0.883079 0.886084 0.906304 0.883079 0.902821 0.92156 0.938283 0.915668 0.932465 0.938283 0.951554 0.932465 0.945851 0.915668 0.932465 0.910582 0.927305 0.932465 0.945851 0.927305 0.940682 0.951554 0.961815 0.945851 0.95626 0.961815 0.969455 0.95626 0.964071 0.945851 0.95626 0.940682 0.951133 0.95626 0.964071 0.951133 0.959025 0.910582 0.927305 0.906304 0.922811 0.927305 0.940682 0.922811 0.936059 0.906304 0.922811 0.902821 0.918979 0.922811 0.936059 0.918979 0.931982 0.940682 0.951133 0.936059 0.946448 0.951133 0.959025 0.946448 0.954333 0.936059 0.946448 0.931982 0.94221 0.946448 0.954333 0.94221 0.950003 0.969455 0.974814 0.964071 0.969617 0.974814 0.978189 0.969617 0.97319 0.964071 0.969617 0.959025 0.964682 0.969617 0.97319 0.964682 0.96839 0.978189 0.979841 0.97319 0.975048 0.979841 0.979999 0.975048 0.975414 0.97319 0.975048 0.96839 0.970398 0.975048 0.975414 0.970398 0.970926 0.959025 0.964682 0.954333 0.960026 0.964682 0.96839 0.960026 0.963804 0.954333 0.960026 0.950003 0.955659 0.960026 0.963804 0.955659 0.959444 0.96839 0.970398 0.963804 0.965908 0.970398 0.970926 0.965908 0.966553 0.963804 0.965908 0.959444 0.96159 0.965908 0.966553 0.96159 0.962305 0.573553 0.632818 0.593581 0.648604 0.760334 0.798231 0.764467 0.80057 0.632818 0.684909 0.648604 0.697109 0.684909 0.730428 0.697109 0.739614 0.722545 0.764467 0.730428 0.76997 0.764467 0.80057 0.76997 0.804106 0.730428 0.76997 0.739614 0.776636 0.76997 0.804106 0.776636 0.808674 0.797241 0.830857 0.798231 0.830575 0.830857 0.859271 0.830575 0.857974 0.798231 0.830575 0.80057 0.831453 0.830575 0.857974 0.831453 0.857673 0.859271 0.883079 0.857974 0.880983 0.883079 0.902821 0.880983 0.900105 0.857974 0.880983 0.857673 0.879738 0.880983 0.900105 0.879738 0.898111 0.80057 0.831453 0.804106 0.833374 0.831453 0.857673 0.833374 0.858275 0.804106 0.833374 0.808674 0.836205 0.833374 0.858275 0.836205 0.859676 0.857673 0.879738 0.858275 0.879272 0.879738 0.898111 0.879272 0.896785 0.858275 0.879272 0.859676 0.879501 0.879272 0.896785 0.879501 0.896062 0.902821 0.918979 0.900105 0.915789 0.918979 0.931982 0.915789 0.928438 0.900105 0.915789 0.898111 0.913209 0.915789 0.928438 0.913209 0.925408 0.931982 0.94221 0.928438 0.938413 0.94221 0.950003 0.938413 0.946033 0.928438 0.938413 0.925408 0.935043 0.938413 0.946033 0.935043 0.942416 0.898111 0.913209 0.896785 0.911199 0.913209 0.925408 0.911199 0.922859 0.896785 0.911199 0.896062 0.909708 0.911199 0.922859 0.909708 0.920754 0.925408 0.935043 0.922859 0.932078 0.935043 0.942416 0.932078 0.939135 0.922859 0.932078 0.920754 0.929489 0.932078 0.939135 0.929489 0.93617 0.950003 0.955659 0.946033 0.951583 0.955659 0.959444 0.951583 0.955314 0.946033 0.951583 0.942416 0.947794 0.951583 0.955314 0.947794 0.951416 0.959444 0.96159 0.955314 0.957452 0.96159 0.962305 0.957452 0.958192 0.955314 0.957452 0.951416 0.953494 0.957452 0.958192 0.953494 0.954218 0.942416 0.947794 0.939135 0.944282 0.947794 0.951416 0.944282 0.947742 0.939135 0.944282 0.93617 0.941032 0.944282 0.947742 0.941032 0.944283 0.951416 0.953494 0.947742 0.949716 0.953494 0.954218 0.949716 0.950382 0.947742 0.949716 0.944283 0.94611 0.949716 0.950382 0.94611 0.946682 0.146599 0.234442 0.220784 0.29865 0.234442 0.316761 0.29865 0.371869 0.220784 0.29865 0.292512 0.360966 0.29865 0.371869 0.360966 0.425599 0.316761 0.393111 0.371869 0.440022 0.393111 0.463275 0.440022 0.50288 0.371869 0.440022 0.425599 0.485977 0.440022 0.50288 0.485977 0.541879 0.384661 0.462025 0.423646 0.49425 0.462025 0.53154 0.49425 0.557903 0.423646 0.49425 0.463275 0.527226 0.49425 0.557903 0.527226 0.585081 0.53154 0.593581 0.557903 0.614898 0.593581 0.648604 0.614898 0.665606 0.557903 0.614898 0.585081 0.637059 0.614898 0.665606 0.637059 0.683454 0.463275 0.527226 0.50288 0.560381 0.527226 0.585081 0.560381 0.612587 0.50288 0.560381 0.541879 0.593211 0.560381 0.612587 0.593211 0.639985 0.585081 0.637059 0.612587 0.659651 0.637059 0.683454 0.659651 0.701796 0.612587 0.659651 0.639985 0.682299 0.659651 0.701796 0.682299 0.720313 0.648604 0.697109 0.665606 0.710443 0.697109 0.739614 0.710443 0.749845 0.665606 0.710443 0.683454 0.724601 0.710443 0.749845 0.724601 0.760863 0.739614 0.776636 0.749845 0.784254 0.776636 0.808674 0.784254 0.814103 0.749845 0.784254 0.760863 0.792613 0.784254 0.814103 0.792613 0.820219 0.683454 0.724601 0.701796 0.739289 0.724601 0.760863 0.739289 0.772422 0.701796 0.739289 0.720313 0.754231 0.739289 0.772422 0.754231 0.784288 0.760863 0.792613 0.772422 0.801505 0.792613 0.820219 0.801505 0.826847 0.772422 0.801505 0.784288 0.810733 0.801505 0.826847 0.810733 0.833824 0.808674 0.836205 0.814103 0.839808 0.836205 0.859676 0.839808 0.861763 0.814103 0.839808 0.820219 0.84404 0.839808 0.861763 0.84404 0.86442 0.859676 0.879501 0.861763 0.880337 0.879501 0.896062 0.880337 0.89587 0.861763 0.880337 0.86442 0.881683 0.880337 0.89587 0.881683 0.896133 0.820219 0.84404 0.826847 0.848756 0.84404 0.86442 0.848756 0.867527 0.826847 0.848756 0.833824 0.853819 0.848756 0.867527 0.853819 0.87097 0.86442 0.881683 0.867527 0.883443 0.881683 0.896133 0.883443 0.896769 0.867527 0.883443 0.87097 0.88552 0.883443 0.896769 0.88552 0.897701 0.896062 0.909708 0.89587 0.908678 0.909708 0.920754 0.908678 0.919047 0.89587 0.908678 0.896133 0.908049 0.908678 0.919047 0.908049 0.917691 0.920754 0.929489 0.919047 0.92724 0.929489 0.93617 0.92724 0.933495 0.919047 0.92724 0.917691 0.925295 0.92724 0.933495 0.925295 0.931078 0.896133 0.908049 0.896769 0.907755 0.908049 0.917691 0.907755 0.916631 0.896769 0.907755 0.897701 0.907731 0.907755 0.916631 0.907731 0.915815 0.917691 0.925295 0.916631 0.923609 0.925295 0.931078 0.923609 0.928886 0.916631 0.923609 0.915815 0.922141 0.923609 0.928886 0.922141 0.926885 0.146599 0.220784 0.234442 0.29865 0.220784 0.292512 0.29865 0.360966 0.234442 0.29865 0.316761 0.371869 0.29865 0.360966 0.371869 0.425599 0.316761 0.371869 0.393111 0.440022 0.371869 0.425599 0.440022 0.485977 0.393111 0.440022 0.463275 0.50288 0.440022 0.485977 0.50288 0.541879 0.93026 0.927746 0.926802 0.924206 0.927746 0.924607 0.924206 0.921018 0.926802 0.924206 0.923382 0.920691 0.924206 0.921018 0.920691 0.917443 0.425599 0.485977 0.477312 0.530418 0.485977 0.541879 0.530418 0.579782 0.477312 0.530418 0.526546 0.572906 0.530418 0.579782 0.572906 0.616188 0.425599 0.477312 0.485977 0.530418 0.477312 0.526546 0.530418 0.572906 0.485977 0.530418 0.541879 0.579782 0.530418 0.572906 0.579782 0.616188 0.526546 0.572906 0.572906 0.613109 0.572906 0.616188 0.613109 0.650786 0.572906 0.613109 0.616188 0.650786 0.613109 0.650786 0.650786 0.683345 0.541879 0.593211 0.579782 0.625283 0.593211 0.639985 0.625283 0.666896 0.579782 0.625283 0.616188 0.656237 0.625283 0.666896 0.656237 0.692998 0.639985 0.682299 0.666896 0.704671 0.682299 0.720313 0.704671 0.738715 0.666896 0.704671 0.692998 0.726481 0.704671 0.738715 0.726481 0.756752 0.616188 0.656237 0.650786 0.685785 0.656237 0.692998 0.685785 0.718026 0.650786 0.685785 0.683345 0.713707 0.685785 0.718026 0.713707 0.741774 0.692998 0.726481 0.718026 0.74749 0.726481 0.756752 0.74749 0.774207 0.718026 0.74749 0.741774 0.767506 0.74749 0.774207 0.767506 0.790904 0.720313 0.754231 0.738715 0.769181 0.754231 0.784288 0.769181 0.796247 0.738715 0.769181 0.756752 0.783915 0.769181 0.796247 0.783915 0.808107 0.784288 0.810733 0.796247 0.820114 0.810733 0.833824 0.820114 0.840993 0.796247 0.820114 0.808107 0.829482 0.820114 0.840993 0.829482 0.848209 0.756752 0.783915 0.774207 0.798244 0.783915 0.808107 0.798244 0.819698 0.774207 0.798244 0.790904 0.812005 0.798244 0.819698 0.812005 0.830875 0.808107 0.829482 0.819698 0.838687 0.829482 0.848209 0.838687 0.855343 0.819698 0.838687 0.830875 0.8476 0.838687 0.855343 0.8476 0.86228 0.833824 0.853819 0.840993 0.859095 0.853819 0.87097 0.859095 0.874636 0.840993 0.859095 0.848209 0.864462 0.859095 0.874636 0.864462 0.878419 0.87097 0.88552 0.874636 0.88782 0.88552 0.897701 0.88782 0.898849 0.874636 0.88782 0.878419 0.890254 0.88782 0.898849 0.890254 0.900137 0.848209 0.864462 0.855343 0.869806 0.864462 0.878419 0.869806 0.882223 0.855343 0.869806 0.86228 0.875027 0.869806 0.882223 0.875027 0.885959 0.878419 0.890254 0.882223 0.892738 0.890254 0.900137 0.892738 0.901495 0.882223 0.892738 0.885959 0.895195 0.892738 0.901495 0.895195 0.902855 0.897701 0.907731 0.898849 0.907912 0.9