# vtk DataFile Version 3.0
#This file was generated by the deal.II library on 2020/5/26 at 23:29:16
ASCII
DATASET UNSTRUCTURED_GRID

POINTS 13516 double
0.8125 0 0
0.875 0 0
0.8125 0.0625 0
0.875 0.0625 0
0.875 0 0
0.9375 0 0
0.875 0.0625 0
0.9375 0.0625 0
0.9375 0 0
1 0 0
0.9375 0.0625 0
1 0.0625 0
0.8125 0.0625 0
0.875 0.0625 0
0.8125 0.125 0
0.875 0.125 0
0.875 0.0625 0
0.9375 0.0625 0
0.875 0.125 0
0.9375 0.125 0
0.9375 0.0625 0
1 0.0625 0
0.9375 0.125 0
1 0.125 0
0.8125 0.125 0
0.875 0.125 0
0.8125 0.1875 0
0.875 0.1875 0
0.875 0.125 0
0.9375 0.125 0
0.875 0.1875 0
0.9375 0.1875 0
0.9375 0.125 0
1 0.125 0
0.9375 0.1875 0
1 0.1875 0
0.8125 0.1875 0
0.875 0.1875 0
0.8125 0.25 0
0.875 0.25 0
0.875 0.1875 0
0.9375 0.1875 0
0.875 0.25 0
0.9375 0.25 0
0.9375 0.1875 0
1 0.1875 0
0.9375 0.25 0
1 0.25 0
0.75 0.25 0
0.8125 0.25 0
0.75 0.3125 0
0.8125 0.3125 0
0.8125 0.25 0
0.875 0.25 0
0.8125 0.3125 0
0.875 0.3125 0
0.875 0.25 0
0.9375 0.25 0
0.875 0.3125 0
0.9375 0.3125 0
0.9375 0.25 0
1 0.25 0
0.9375 0.3125 0
1 0.3125 0
0.75 0.3125 0
0.8125 0.3125 0
0.75 0.375 0
0.8125 0.375 0
0.8125 0.3125 0
0.875 0.3125 0
0.8125 0.375 0
0.875 0.375 0
0.875 0.3125 0
0.9375 0.3125 0
0.875 0.375 0
0.9375 0.375 0
0.9375 0.3125 0
1 0.3125 0
0.9375 0.375 0
1 0.375 0
0.6875 0.375 0
0.75 0.375 0
0.6875 0.4375 0
0.75 0.4375 0
0.75 0.375 0
0.8125 0.375 0
0.75 0.4375 0
0.8125 0.4375 0
0.8125 0.375 0
0.875 0.375 0
0.8125 0.4375 0
0.875 0.4375 0
0.875 0.375 0
0.9375 0.375 0
0.875 0.4375 0
0.9375 0.4375 0
0.9375 0.375 0
1 0.375 0
0.9375 0.4375 0
1 0.4375 0
0.6875 0.4375 0
0.75 0.4375 0
0.6875 0.5 0
0.75 0.5 0
0.75 0.4375 0
0.8125 0.4375 0
0.75 0.5 0
0.8125 0.5 0
0.8125 0.4375 0
0.875 0.4375 0
0.8125 0.5 0
0.875 0.5 0
0.875 0.4375 0
0.9375 0.4375 0
0.875 0.5 0
0.9375 0.5 0
0.9375 0.4375 0
1 0.4375 0
0.9375 0.5 0
1 0.5 0
0.6875 0.5 0
0.75 0.5 0
0.6875 0.5625 0
0.75 0.5625 0
0.75 0.5 0
0.8125 0.5 0
0.75 0.5625 0
0.8125 0.5625 0
0.8125 0.5 0
0.875 0.5 0
0.8125 0.5625 0
0.875 0.5625 0
0.875 0.5 0
0.9375 0.5 0
0.875 0.5625 0
0.9375 0.5625 0
0.9375 0.5 0
1 0.5 0
0.9375 0.5625 0
1 0.5625 0
0.6875 0.5625 0
0.75 0.5625 0
0.6875 0.625 0
0.75 0.625 0
0.75 0.5625 0
0.8125 0.5625 0
0.75 0.625 0
0.8125 0.625 0
0.8125 0.5625 0
0.875 0.5625 0
0.8125 0.625 0
0.875 0.625 0
0.875 0.5625 0
0.9375 0.5625 0
0.875 0.625 0
0.9375 0.625 0
0.9375 0.5625 0
1 0.5625 0
0.9375 0.625 0
1 0.625 0
0.625 0.625 0
0.6875 0.625 0
0.625 0.6875 0
0.6875 0.6875 0
0.6875 0.625 0
0.75 0.625 0
0.6875 0.6875 0
0.75 0.6875 0
0.75 0.625 0
0.8125 0.625 0
0.75 0.6875 0
0.8125 0.6875 0
0.8125 0.625 0
0.875 0.625 0
0.8125 0.6875 0
0.875 0.6875 0
0.875 0.625 0
0.9375 0.625 0
0.875 0.6875 0
0.9375 0.6875 0
0.9375 0.625 0
1 0.625 0
0.9375 0.6875 0
1 0.6875 0
0.375 0.6875 0
0.4375 0.6875 0
0.375 0.75 0
0.4375 0.75 0
0.4375 0.6875 0
0.5 0.6875 0
0.4375 0.75 0
0.5 0.75 0
0.5 0.6875 0
0.5625 0.6875 0
0.5 0.75 0
0.5625 0.75 0
0.5625 0.6875 0
0.625 0.6875 0
0.5625 0.75 0
0.625 0.75 0
0.625 0.6875 0
0.6875 0.6875 0
0.625 0.75 0
0.6875 0.75 0
0.6875 0.6875 0
0.75 0.6875 0
0.6875 0.75 0
0.75 0.75 0
0.75 0.6875 0
0.8125 0.6875 0
0.75 0.75 0
0.8125 0.75 0
0.8125 0.6875 0
0.875 0.6875 0
0.8125 0.75 0
0.875 0.75 0
0.875 0.6875 0
0.9375 0.6875 0
0.875 0.75 0
0.9375 0.75 0
0.9375 0.6875 0
1 0.6875 0
0.9375 0.75 0
1 0.75 0
0.25 0.75 0
0.3125 0.75 0
0.25 0.8125 0
0.3125 0.8125 0
0.3125 0.75 0
0.375 0.75 0
0.3125 0.8125 0
0.375 0.8125 0
0.375 0.75 0
0.4375 0.75 0
0.375 0.8125 0
0.4375 0.8125 0
0.4375 0.75 0
0.5 0.75 0
0.4375 0.8125 0
0.5 0.8125 0
0.5 0.75 0
0.5625 0.75 0
0.5 0.8125 0
0.5625 0.8125 0
0.5625 0.75 0
0.625 0.75 0
0.5625 0.8125 0
0.625 0.8125 0
0.625 0.75 0
0.6875 0.75 0
0.625 0.8125 0
0.6875 0.8125 0
0.6875 0.75 0
0.75 0.75 0
0.6875 0.8125 0
0.75 0.8125 0
0.75 0.75 0
0.8125 0.75 0
0.75 0.8125 0
0.8125 0.8125 0
0.8125 0.75 0
0.875 0.75 0
0.8125 0.8125 0
0.875 0.8125 0
0.875 0.75 0
0.9375 0.75 0
0.875 0.8125 0
0.9375 0.8125 0
0.9375 0.75 0
1 0.75 0
0.9375 0.8125 0
1 0.8125 0
0 0.8125 0
0.0625 0.8125 0
0 0.875 0
0.0625 0.875 0
0.0625 0.8125 0
0.125 0.8125 0
0.0625 0.875 0
0.125 0.875 0
0.125 0.8125 0
0.1875 0.8125 0
0.125 0.875 0
0.1875 0.875 0
0.1875 0.8125 0
0.25 0.8125 0
0.1875 0.875 0
0.25 0.875 0
0.25 0.8125 0
0.3125 0.8125 0
0.25 0.875 0
0.3125 0.875 0
0.3125 0.8125 0
0.375 0.8125 0
0.3125 0.875 0
0.375 0.875 0
0.375 0.8125 0
0.4375 0.8125 0
0.375 0.875 0
0.4375 0.875 0
0.4375 0.8125 0
0.5 0.8125 0
0.4375 0.875 0
0.5 0.875 0
0.5 0.8125 0
0.5625 0.8125 0
0.5 0.875 0
0.5625 0.875 0
0.5625 0.8125 0
0.625 0.8125 0
0.5625 0.875 0
0.625 0.875 0
0.625 0.8125 0
0.6875 0.8125 0
0.625 0.875 0
0.6875 0.875 0
0.6875 0.8125 0
0.75 0.8125 0
0.6875 0.875 0
0.75 0.875 0
0.75 0.8125 0
0.8125 0.8125 0
0.75 0.875 0
0.8125 0.875 0
0.8125 0.8125 0
0.875 0.8125 0
0.8125 0.875 0
0.875 0.875 0
0.875 0.8125 0
0.9375 0.8125 0
0.875 0.875 0
0.9375 0.875 0
0.9375 0.8125 0
1 0.8125 0
0.9375 0.875 0
1 0.875 0
0 0.875 0
0.0625 0.875 0
0 0.9375 0
0.0625 0.9375 0
0.0625 0.875 0
0.125 0.875 0
0.0625 0.9375 0
0.125 0.9375 0
0.125 0.875 0
0.1875 0.875 0
0.125 0.9375 0
0.1875 0.9375 0
0.1875 0.875 0
0.25 0.875 0
0.1875 0.9375 0
0.25 0.9375 0
0.25 0.875 0
0.3125 0.875 0
0.25 0.9375 0
0.3125 0.9375 0
0.3125 0.875 0
0.375 0.875 0
0.3125 0.9375 0
0.375 0.9375 0
0.375 0.875 0
0.4375 0.875 0
0.375 0.9375 0
0.4375 0.9375 0
0.4375 0.875 0
0.5 0.875 0
0.4375 0.9375 0
0.5 0.9375 0
0.5 0.875 0
0.5625 0.875 0
0.5 0.9375 0
0.5625 0.9375 0
0.5625 0.875 0
0.625 0.875 0
0.5625 0.9375 0
0.625 0.9375 0
0.625 0.875 0
0.6875 0.875 0
0.625 0.9375 0
0.6875 0.9375 0
0.6875 0.875 0
0.75 0.875 0
0.6875 0.9375 0
0.75 0.9375 0
0.75 0.875 0
0.8125 0.875 0
0.75 0.9375 0
0.8125 0.9375 0
0.8125 0.875 0
0.875 0.875 0
0.8125 0.9375 0
0.875 0.9375 0
0.875 0.875 0
0.9375 0.875 0
0.875 0.9375 0
0.9375 0.9375 0
0.9375 0.875 0
1 0.875 0
0.9375 0.9375 0
1 0.9375 0
0 0.9375 0
0.0625 0.9375 0
0 1 0
0.0625 1 0
0.0625 0.9375 0
0.125 0.9375 0
0.0625 1 0
0.125 1 0
0.125 0.9375 0
0.1875 0.9375 0
0.125 1 0
0.1875 1 0
0.1875 0.9375 0
0.25 0.9375 0
0.1875 1 0
0.25 1 0
0.25 0.9375 0
0.3125 0.9375 0
0.25 1 0
0.3125 1 0
0.3125 0.9375 0
0.375 0.9375 0
0.3125 1 0
0.375 1 0
0.375 0.9375 0
0.4375 0.9375 0
0.375 1 0
0.4375 1 0
0.4375 0.9375 0
0.5 0.9375 0
0.4375 1 0
0.5 1 0
0.5 0.9375 0
0.5625 0.9375 0
0.5 1 0
0.5625 1 0
0.5625 0.9375 0
0.625 0.9375 0
0.5625 1 0
0.625 1 0
0.625 0.9375 0
0.6875 0.9375 0
0.625 1 0
0.6875 1 0
0.6875 0.9375 0
0.75 0.9375 0
0.6875 1 0
0.75 1 0
0.75 0.9375 0
0.8125 0.9375 0
0.75 1 0
0.8125 1 0
0.8125 0.9375 0
0.875 0.9375 0
0.8125 1 0
0.875 1 0
0.875 0.9375 0
0.9375 0.9375 0
0.875 1 0
0.9375 1 0
0.9375 0.9375 0
1 0.9375 0
0.9375 1 0
1 1 0
0.40625 0 0
0.4375 0 0
0.40625 0.03125 0
0.4375 0.03125 0
0.4375 0 0
0.46875 0 0
0.4375 0.03125 0
0.46875 0.03125 0
0.46875 0 0
0.5 0 0
0.46875 0.03125 0
0.5 0.03125 0
0.4375 0.03125 0
0.46875 0.03125 0
0.4375 0.0625 0
0.46875 0.0625 0
0.46875 0.03125 0
0.5 0.03125 0
0.46875 0.0625 0
0.5 0.0625 0
0.5 0.03125 0
0.53125 0.03125 0
0.5 0.0625 0
0.53125 0.0625 0
0.46875 0.0625 0
0.5 0.0625 0
0.46875 0.09375 0
0.5 0.09375 0
0.46875 0.09375 0
0.5 0.09375 0
0.46875 0.125 0
0.5 0.125 0
0.5 0.0625 0
0.53125 0.0625 0
0.5 0.09375 0
0.53125 0.09375 0
0.5 0.09375 0
0.53125 0.09375 0
0.5 0.125 0
0.53125 0.125 0
0.53125 0.09375 0
0.5625 0.09375 0
0.53125 0.125 0
0.5625 0.125 0
0.5625 0.09375 0
0.59375 0.09375 0
0.5625 0.125 0
0.59375 0.125 0
0.59375 0.09375 0
0.625 0.09375 0
0.59375 0.125 0
0.625 0.125 0
0.46875 0.125 0
0.5 0.125 0
0.46875 0.15625 0
0.5 0.15625 0
0.46875 0.15625 0
0.5 0.15625 0
0.46875 0.1875 0
0.5 0.1875 0
0.5 0.125 0
0.53125 0.125 0
0.5 0.15625 0
0.53125 0.15625 0
0.53125 0.125 0
0.5625 0.125 0
0.53125 0.15625 0
0.5625 0.15625 0
0.5 0.15625 0
0.53125 0.15625 0
0.5 0.1875 0
0.53125 0.1875 0
0.53125 0.15625 0
0.5625 0.15625 0
0.53125 0.1875 0
0.5625 0.1875 0
0.5625 0.125 0
0.59375 0.125 0
0.5625 0.15625 0
0.59375 0.15625 0
0.59375 0.125 0
0.625 0.125 0
0.59375 0.15625 0
0.625 0.15625 0
0.5625 0.15625 0
0.59375 0.15625 0
0.5625 0.1875 0
0.59375 0.1875 0
0.59375 0.15625 0
0.625 0.15625 0
0.59375 0.1875 0
0.625 0.1875 0
0.4375 0.1875 0
0.46875 0.1875 0
0.4375 0.21875 0
0.46875 0.21875 0
0.46875 0.1875 0
0.5 0.1875 0
0.46875 0.21875 0
0.5 0.21875 0
0.4375 0.21875 0
0.46875 0.21875 0
0.4375 0.25 0
0.46875 0.25 0
0.46875 0.21875 0
0.5 0.21875 0
0.46875 0.25 0
0.5 0.25 0
0.5 0.1875 0
0.53125 0.1875 0
0.5 0.21875 0
0.53125 0.21875 0
0.53125 0.1875 0
0.5625 0.1875 0
0.53125 0.21875 0
0.5625 0.21875 0
0.5 0.21875 0
0.53125 0.21875 0
0.5 0.25 0
0.53125 0.25 0
0.53125 0.21875 0
0.5625 0.21875 0
0.53125 0.25 0
0.5625 0.25 0
0.40625 0.25 0
0.4375 0.25 0
0.40625 0.28125 0
0.4375 0.28125 0
0.40625 0.28125 0
0.4375 0.28125 0
0.40625 0.3125 0
0.4375 0.3125 0
0.4375 0.25 0
0.46875 0.25 0
0.4375 0.28125 0
0.46875 0.28125 0
0.46875 0.25 0
0.5 0.25 0
0.46875 0.28125 0
0.5 0.28125 0
0.4375 0.28125 0
0.46875 0.28125 0
0.4375 0.3125 0
0.46875 0.3125 0
0.46875 0.28125 0
0.5 0.28125 0
0.46875 0.3125 0
0.5 0.3125 0
0.5 0.25 0
0.53125 0.25 0
0.5 0.28125 0
0.53125 0.28125 0
0.53125 0.25 0
0.5625 0.25 0
0.53125 0.28125 0
0.5625 0.28125 0
0.5 0.28125 0
0.53125 0.28125 0
0.5 0.3125 0
0.53125 0.3125 0
0.375 0.3125 0
0.40625 0.3125 0
0.375 0.34375 0
0.40625 0.34375 0
0.40625 0.3125 0
0.4375 0.3125 0
0.40625 0.34375 0
0.4375 0.34375 0
0.375 0.34375 0
0.40625 0.34375 0
0.375 0.375 0
0.40625 0.375 0
0.40625 0.34375 0
0.4375 0.34375 0
0.40625 0.375 0
0.4375 0.375 0
0.4375 0.3125 0
0.46875 0.3125 0
0.4375 0.34375 0
0.46875 0.34375 0
0.46875 0.3125 0
0.5 0.3125 0
0.46875 0.34375 0
0.5 0.34375 0
0.4375 0.34375 0
0.46875 0.34375 0
0.4375 0.375 0
0.46875 0.375 0
0 0.40625 0
0.03125 0.40625 0
0 0.4375 0
0.03125 0.4375 0
0.25 0.40625 0
0.28125 0.40625 0
0.25 0.4375 0
0.28125 0.4375 0
0.28125 0.40625 0
0.3125 0.40625 0
0.28125 0.4375 0
0.3125 0.4375 0
0.3125 0.375 0
0.34375 0.375 0
0.3125 0.40625 0
0.34375 0.40625 0
0.34375 0.375 0
0.375 0.375 0
0.34375 0.40625 0
0.375 0.40625 0
0.3125 0.40625 0
0.34375 0.40625 0
0.3125 0.4375 0
0.34375 0.4375 0
0.34375 0.40625 0
[...]
POINT_DATA 13516
SCALARS solution double 1
LOOKUP_TABLE default
0.926262 0.892447 0.918377 0.887077 0.892447 0.858142 0.887077 0.855007 0.858142 0.824405 0.855007 0.823369 0.918377 0.887077 0.90852 0.87961 0.887077 0.855007 0.87961 0.849773 0.855007 0.823369 0.849773 0.820278 0.90852 0.87961 0.897178 0.870378 0.87961 0.849773 0.870378 0.84263 0.849773 0.820278 0.84263 0.815189 0.897178 0.870378 0.884701 0.859657 0.870378 0.84263 0.859657 0.833767 0.84263 0.815189 0.833767 0.808195 0.907203 0.884701 0.892865 0.871309 0.884701 0.859657 0.871309 0.847663 0.859657 0.833767 0.847663 0.823362 0.833767 0.808195 0.823362 0.799424 0.892865 0.871309 0.878068 0.8571 0.871309 0.847663 0.8571 0.834557 0.847663 0.823362 0.834557 0.811583 0.823362 0.799424 0.811583 0.789031 0.895929 0.878068 0.88109 0.862705 0.878068 0.8571 0.862705 0.842124 0.8571 0.834557 0.842124 0.820463 0.834557 0.811583 0.820463 0.798592 0.811583 0.789031 0.798592 0.777196 0.88109 0.862705 0.865483 0.846674 0.862705 0.842124 0.846674 0.826418 0.842124 0.820463 0.826418 0.805495 0.820463 0.798592 0.805495 0.784551 0.798592 0.777196 0.784551 0.764114 0.865483 0.846674 0.848963 0.829944 0.846674 0.826418 0.829944 0.810035 0.826418 0.805495 0.810035 0.789771 0.805495 0.784551 0.789771 0.769623 0.784551 0.764114 0.769623 0.749991 0.848963 0.829944 0.831545 0.812562 0.829944 0.810035 0.812562 0.793064 0.810035 0.789771 0.793064 0.773422 0.789771 0.769623 0.773422 0.753977 0.769623 0.749991 0.753977 0.73503 0.849642 0.831545 0.831545 0.813366 0.831545 0.812562 0.813366 0.794641 0.812562 0.793064 0.794641 0.775628 0.793064 0.773422 0.775628 0.756591 0.773422 0.753977 0.756591 0.737782 0.753977 0.73503 0.737782 0.719429 0.895929 0.88109 0.878068 0.862705 0.88109 0.865483 0.862705 0.846674 0.865483 0.848963 0.846674 0.829944 0.848963 0.831545 0.829944 0.812562 0.831545 0.813366 0.812562 0.794641 0.813366 0.794641 0.794641 0.776349 0.794641 0.775628 0.776349 0.757879 0.775628 0.756591 0.757879 0.739433 0.756591 0.737782 0.739433 0.721206 0.737782 0.719429 0.721206 0.703375 0.907203 0.892865 0.884701 0.871309 0.892865 0.878068 0.871309 0.8571 0.878068 0.862705 0.8571 0.842124 0.862705 0.846674 0.842124 0.826418 0.846674 0.829944 0.826418 0.810035 0.829944 0.812562 0.810035 0.793064 0.812562 0.794641 0.793064 0.775628 0.794641 0.776349 0.775628 0.757879 0.776349 0.757879 0.757879 0.739982 0.757879 0.739433 0.739982 0.722104 0.739433 0.721206 0.722104 0.704407 0.721206 0.703375 0.704407 0.687037 0.926262 0.918377 0.892447 0.887077 0.918377 0.90852 0.887077 0.87961 0.90852 0.897178 0.87961 0.870378 0.897178 0.884701 0.870378 0.859657 0.884701 0.871309 0.859657 0.847663 0.871309 0.8571 0.847663 0.834557 0.8571 0.842124 0.834557 0.820463 0.842124 0.826418 0.820463 0.805495 0.826418 0.810035 0.805495 0.789771 0.810035 0.793064 0.789771 0.773422 0.793064 0.775628 0.773422 0.756591 0.775628 0.757879 0.756591 0.739433 0.757879 0.739982 0.739433 0.722104 0.739982 0.722104 0.722104 0.704758 0.722104 0.704407 0.704758 0.687536 0.704407 0.687037 0.687536 0.670565 0.892447 0.887077 0.858142 0.855007 0.887077 0.87961 0.855007 0.849773 0.87961 0.870378 0.849773 0.84263 0.870378 0.859657 0.84263 0.833767 0.859657 0.847663 0.833767 0.823362 0.847663 0.834557 0.823362 0.811583 0.834557 0.820463 0.811583 0.798592 0.820463 0.805495 0.798592 0.784551 0.805495 0.789771 0.784551 0.769623 0.789771 0.773422 0.769623 0.753977 0.773422 0.756591 0.753977 0.737782 0.756591 0.739433 0.737782 0.721206 0.739433 0.722104 0.721206 0.704407 0.722104 0.704758 0.704407 0.687536 0.704758 0.687536 0.687536 0.670725 0.687536 0.670565 0.670725 0.654091 0.858142 0.855007 0.824405 0.823369 0.855007 0.849773 0.823369 0.820278 0.849773 0.84263 0.820278 0.815189 0.84263 0.833767 0.815189 0.808195 0.833767 0.823362 0.808195 0.799424 0.823362 0.811583 0.799424 0.789031 0.811583 0.798592 0.789031 0.777196 0.798592 0.784551 0.777196 0.764114 0.784551 0.769623 0.764114 0.749991 0.769623 0.753977 0.749991 0.73503 0.753977 0.737782 0.73503 0.719429 0.737782 0.721206 0.719429 0.703375 0.721206 0.704407 0.703375 0.687037 0.704407 0.687536 0.687037 0.670565 0.687536 0.670725 0.670565 0.654091 0.670725 0.654091 0.654091 0.637725 0.757131 0.84731 0.731484 0.824944 0.84731 0.910261 0.824944 0.890842 0.910261 0.952486 0.890842 0.935653 0.824944 0.890842 0.808971 0.87565 0.890842 0.935653 0.87565 0.921547 0.935653 0.964438 0.921547 0.951541 0.87565 0.921547 0.865121 0.910563 0.865121 0.910563 0.859241 0.902797 0.921547 0.951541 0.910563 0.940669 0.910563 0.940669 0.902797 0.931961 0.940669 0.95901 0.931961 0.949984 0.95901 0.968376 0.949984 0.959427 0.968376 0.970914 0.959427 0.962291 0.859241 0.902797 0.857638 0.898082 0.857638 0.898082 0.859635 0.896029 0.902797 0.931961 0.898082 0.925383 0.931961 0.949984 0.925383 0.942394 0.898082 0.925383 0.896029 0.920725 0.925383 0.942394 0.920725 0.936145 0.949984 0.959427 0.942394 0.951397 0.959427 0.962291 0.951397 0.954202 0.942394 0.951397 0.936145 0.944261 0.951397 0.954202 0.944261 0.946664 0.808633 0.859635 0.820172 0.864379 0.859635 0.896029 0.864379 0.896097 0.820172 0.864379 0.833775 0.870927 0.864379 0.896097 0.870927 0.897664 0.896029 0.920725 0.896097 0.917659 0.920725 0.936145 0.917659 0.931051 0.896097 0.917659 0.897664 0.915782 0.917659 0.931051 0.915782 0.926856 0.784234 0.833775 0.808053 0.84816 0.808053 0.84816 0.830822 0.862232 0.833775 0.870927 0.84816 0.878376 0.870927 0.897664 0.878376 0.900099 0.84816 0.878376 0.862232 0.885916 0.878376 0.900099 0.885916 0.902817 0.897664 0.915782 0.900099 0.914663 0.915782 0.926856 0.914663 0.923275 0.900099 0.914663 0.902817 0.913887 0.790845 0.830822 0.821434 0.851476 0.830822 0.862232 0.851476 0.875137 0.821434 0.851476 0.847699 0.869312 0.851476 0.875137 0.869312 0.886266 0.862232 0.885916 0.875137 0.892884 0.885916 0.902817 0.892884 0.905312 0.875137 0.892884 0.886266 0.898774 0.757131 0.731484 0.84731 0.824944 0.784234 0.808053 0.833775 0.84816 0.808053 0.830822 0.84816 0.862232 0.790845 0.821434 0.830822 0.851476 0.821434 0.847699 0.851476 0.869312 0.830822 0.851476 0.862232 0.875137 0.851476 0.869312 0.875137 0.886266 0.847699 0.869312 0.869312 0.883943 0.869312 0.886266 0.883943 0.895234 0.869312 0.883943 0.886266 0.895234 0.883943 0.895234 0.895234 0.90185 0.886266 0.898774 0.895234 0.903239 0.898774 0.907185 0.903239 0.908137 0.895234 0.903239 0.90185 0.906073 0.903239 0.908137 0.906073 0.907975 0.84731 0.824944 0.910261 0.890842 0.824944 0.808971 0.890842 0.87565 0.910261 0.890842 0.952486 0.935653 0.890842 0.87565 0.935653 0.921547 0.87565 0.865121 0.921547 0.910563 0.865121 0.859241 0.910563 0.902797 0.859241 0.857638 0.902797 0.898082 0.857638 0.859635 0.898082 0.896029 0.808633 0.820172 0.859635 0.864379 0.820172 0.833775 0.864379 0.870927 0.859635 0.864379 0.896029 0.896097 0.864379 0.870927 0.896097 0.897664 0.833775 0.84816 0.870927 0.878376 0.84816 0.862232 0.878376 0.885916 0.870927 0.878376 0.897664 0.900099 0.878376 0.885916 0.900099 0.902817 0.862232 0.875137 0.885916 0.892884 0.875137 0.886266 0.892884 0.898774 0.885916 0.892884 0.902817 0.905312 0.886266 0.895234 0.898774 0.903239 0.895234 0.90185 0.903239 0.906073 0.898774 0.903239 0.907185 0.908137 0.903239 0.906073 0.908137 0.907975 0.90185 0.906073 0.906073 0.90719 0.906073 0.907975 0.90719 0.906593 0.906073 0.90719 0.907975 0.906593 0.90719 0.906593 0.906593 0.903958 0.935653 0.921547 0.964438 0.951541 0.921547 0.910563 0.951541 0.940669 0.910563 0.902797 0.940669 0.931961 0.940669 0.931961 0.95901 0.949984 0.902797 0.898082 0.931961 0.925383 0.898082 0.896029 0.925383 0.920725 0.931961 0.925383 0.949984 0.942394 0.925383 0.920725 0.942394 0.936145 0.896029 0.896097 0.920725 0.917659 0.896097 0.897664 0.917659 0.915782 0.920725 0.917659 0.936145 0.931051 0.917659 0.915782 0.931051 0.926856 0.897664 0.900099 0.915782 0.914663 0.900099 0.902817 0.914663 0.913887 0.915782 0.914663 0.926856 0.923275 0.95901 0.949984 0.968376 0.959427 0.968376 0.959427 0.970914 0.962291 0.949984 0.942394 0.959427 0.951397 0.942394 0.936145 0.951397 0.944261 0.959427 0.951397 0.962291 0.954202 0.951397 0.944261 0.954202 0.946664 0.99376 0.999616 0.981129 0.988675 0.999616 0.998832 0.988675 0.989368 0.988675 0.989368 0.978183 0.97999 0.998832 0.993107 0.989368 0.98493 0.993107 0.983733 0.98493 0.976684 0.989368 0.98493 0.97999 0.976596 0.98493 0.976684 0.976596 0.969314 0.983733 0.971695 0.976684 0.965641 0.971695 0.957743 0.965641 0.952573 0.976684 0.965641 0.969314 0.959157 0.965641 0.952573 0.959157 0.946904 0.97999 0.976596 0.970914 0.968287 0.976596 0.969314 0.968287 0.961775 0.970914 0.968287 0.962291 0.960138 0.968287 0.961775 0.960138 0.954186 0.962291 0.960138 0.954202 0.952239 0.960138 0.954186 0.952239 0.946637 0.954202 0.952239 0.946664 0.94463 0.952239 0.946637 0.94463 0.939179 0.936145 0.944261 0.931051 0.937924 0.944261 0.946664 0.937924 0.93964 0.931051 0.937924 0.926856 0.932234 0.937924 0.93964 0.932234 0.933047 0.946664 0.94463 0.93964 0.937309 0.94463 0.939179 0.937309 0.931832 0.93964 0.937309 0.933047 0.930241 0.937309 0.931832 0.930241 0.924591 0.926856 0.932234 0.923275 0.927009 0.923275 0.927009 0.920022 0.92205 0.927009 0.926775 0.92205 0.920696 0.902817 0.913887 0.905312 0.913077 0.913887 0.920022 0.913077 0.916824 0.905312 0.913077 0.907185 0.911925 0.913077 0.916824 0.911925 0.913448 0.920022 0.92205 0.916824 0.91717 0.92205 0.920696 0.91717 0.914681 0.91717 0.914681 0.912199 0.908608 0.907185 0.911925 0.908137 0.91019 0.911925 0.913448 0.91019 0.909702 0.908137 0.91019 0.907975 0.907701 0.91019 0.909702 0.907701 0.905448 0.907975 0.907701 0.906593 0.904353 0.907701 0.905448 0.904353 0.900589 0.906593 0.904353 0.903958 0.900097 0.904353 0.900589 0.900097 0.895074 0.902817 0.905312 0.913887 0.913077 0.905312 0.907185 0.913077 0.911925 0.913887 0.913077 0.920022 0.916824 0.913077 0.911925 0.916824 0.913448 0.907185 0.908137 0.911925 0.91019 0.908137 0.907975 0.91019 0.907701 0.911925 0.91019 0.913448 0.909702 0.91019 0.907701 0.909702 0.905448 0.907975 0.906593 0.907701 0.904353 0.906593 0.903958 0.904353 0.900097 0.907701 0.904353 0.905448 0.900589 0.904353 0.900097 0.900589 0.895074 0.99376 0.981129 0.999616 0.988675 0.999616 0.988675 0.998832 0.989368 0.988675 0.978183 0.989368 0.97999 0.936145 0.931051 0.944261 0.937924 0.931051 0.926856 0.937924 0.932234 0.944261 0.937924 0.946664 0.93964 0.937924 0.932234 0.93964 0.933047 0.926856 0.923275 0.932234 0.927009 0.923275 0.920022 0.927009 0.92205 0.927009 0.92205 0.926775 0.920696 0.920022 0.916824 0.92205 0.91717 0.92205 0.91717 0.920696 0.914681 0.91717 0.912199 0.914681 0.908608 0.998832 0.989368 0.993107 0.98493 0.989368 0.97999 0.98493 0.976596 0.993107 0.98493 0.983733 0.976684 0.98493 0.976596 0.976684 0.969314 0.97999 0.970914 0.976596 0.968287 0.970914 0.962291 0.968287 0.960138 0.976596 0.968287 0.969314 0.961775 0.968287 0.960138 0.961775 0.954186 0.962291 0.954202 0.960138 0.952239 0.954202 0.946664 0.952239 0.94463 0.960138 0.952239 0.954186 0.946637 0.952239 0.94463 0.946637 0.939179 0.946664 0.93964 0.94463 0.937309 0.93964 0.933047 0.937309 0.930241 0.94463 0.937309 0.939179 0.931832 0.937309 0.930241 0.931832 0.924591 0.983733 0.976684 0.971695 0.965641 0.976684 0.969314 0.965641 0.959157 0.971695 0.965641 0.957743 0.952573 0.965641 0.959157 0.952573 0.946904 0.969314 0.959157 0.961775 0.95237 0.959157 0.946904 0.95237 0.940841 0.961775 0.95237 0.954186 0.945385 0.95237 0.940841 0.945385 0.934475 0.954186 0.945385 0.946637 0.938283 0.945385 0.934475 0.938283 0.927879 0.946637 0.938283 0.939179 0.931123 0.938283 0.927879 0.931123 0.921112 0.939179 0.931123 0.931832 0.923937 0.931123 0.921112 0.923937 0.91421 0.931832 0.923937 0.924591 0.916737 0.923937 0.91421 0.916737 0.907203 0.933047 0.930241 0.926775 0.923362 0.930241 0.924591 0.923362 0.917426 0.926775 0.923362 0.920696 0.916596 0.923362 0.917426 0.916596 0.910294 0.920696 0.916596 0.914681 0.909857 0.916596 0.910294 0.909857 0.903144 0.909857 0.903144 0.903066 0.895929 0.913448 0.912199 0.909702 0.906991 0.912199 0.908608 0.906991 0.902372 0.909702 0.906991 0.905448 0.901434 0.906991 0.902372 0.901434 0.895888 0.905448 0.901434 0.900589 0.895448 0.901434 0.895888 0.895448 0.889091 0.900589 0.895448 0.895074 0.888984 0.895448 0.889091 0.888984 0.881941 0.903958 0.900097 0.900097 0.894929 0.900097 0.895074 0.894929 0.888885 0.900097 0.894929 0.895074 0.888885 0.894929 0.888885 0.888885 0.882036 0.895074 0.888984 0.888885 0.882022 0.888984 0.881941 0.882022 0.874417 0.888885 0.882022 0.882036 0.874562 0.882022 0.874417 0.874562 0.866515 0.913448 0.909702 0.912199 0.906991 0.909702 0.905448 0.906991 0.901434 0.912199 0.906991 0.908608 0.902372 0.906991 0.901434 0.902372 0.895888 0.905448 0.900589 0.901434 0.895448 0.900589 0.895074 0.895448 0.888984 0.901434 0.895448 0.895888 0.889091 0.895448 0.888984 0.889091 0.881941 0.895074 0.888885 0.888984 0.882022 0.888885 0.882036 0.882022 0.874562 0.888984 0.882022 0.881941 0.874417 0.882022 0.874562 0.874417 0.866515 0.933047 0.926775 0.930241 0.923362 0.926775 0.920696 0.923362 0.916596 0.930241 0.923362 0.924591 0.917426 0.923362 0.916596 0.917426 0.910294 0.920696 0.914681 0.916596 0.909857 0.916596 0.909857 0.910294 0.903144 0.909857 0.903066 0.903144 0.895929 0.969314 0.961775 0.959157 0.95237 0.961775 0.954186 0.95237 0.945385 0.959157 0.95237 0.946904 0.940841 0.95237 0.945385 0.940841 0.934475 0.954186 0.946637 0.945385 0.938283 0.946637 0.939179 0.938283 0.931123 0.945385 0.938283 0.934475 0.927879 0.938283 0.931123 0.927879 0.921112 0.939179 0.931832 0.931123 0.923937 0.931832 0.924591 0.923937 0.916737 0.931123 0.923937 0.921112 0.91421 0.923937 0.916737 0.91421 0.907203 0.957743 0.942452 0.952573 0.938074 0.942452 0.926262 0.938074 0.9226 0.952573 0.938074 0.946904 0.933156 0.938074 0.9226 0.933156 0.918377 0.946904 0.933156 0.940841 0.927784 0.933156 0.918377 0.927784 0.913662 0.940841 0.927784 0.934475 0.922035 0.927784 0.913662 0.922035 0.90852 0.934475 0.922035 0.927879 0.915976 0.922035 0.90852 0.915976 0.90301 0.927879 0.915976 0.921112 0.90966 0.915976 0.90301 0.90966 0.897178 0.921112 0.90966 0.91421 0.903127 0.90966 0.897178 0.903127 0.891069 0.91421 0.903127 0.907203 0.896406 0.903127 0.891069 0.896406 0.884701 0.924591 0.916737 0.917426 0.909515 0.916737 0.907203 0.909515 0.900085 0.917426 0.909515 0.910294 0.902254 0.909515 0.900085 0.902254 0.892865 0.910294 0.902254 0.903144 0.894926 0.902254 0.892865 0.894926 0.885534 0.903144 0.894926 0.895929 0.887503 0.894926 0.885534 0.887503 0.878068 0.908608 0.903066 0.902372 0.896145 0.903066 0.895929 0.896145 0.888589 0.902372 0.896145 0.895888 0.889034 0.896145 0.888589 0.889034 0.88109 0.895888 0.889034 0.889091 0.881685 0.889034 0.88109 0.881685 0.873395 0.889091 0.881685 0.881941 0.874066 0.881685 0.873395 0.874066 0.865483 0.881941 0.874066 0.874417 0.866158 0.874066 0.865483 0.866158 0.857339 0.874417 0.866158 0.866515 0.857959 0.866158 0.857339 0.857959 0.848963 0.882036 0.874562 0.874562 0.866626 0.874562 0.866515 0.866626 0.858249 0.874562 0.866626 0.866515 0.858249 0.866626 0.858249 0.858249 0.849642 0.866515 0.857959 0.858249 0.849476 0.857959 0.848963 0.849476 0.840361 0.858249 0.849476 0.849642 0.840727 0.849476 0.840361 0.840727 0.831545 0.908608 0.902372 0.903066 0.896145 0.902372 0.895888 0.896145 0.889034 0.903066 0.896145 0.895929 0.888589 0.896145 0.889034 0.888589 0.88109 0.895888 0.889091 0.889034 0.881685 0.889091 0.881941 0.881685 0.874066 0.889034 0.881685 0.88109 0.873395 0.881685 0.874066 0.873395 0.865483 0.881941 0.874417 0.874066 0.866158 0.874417 0.866515 0.866158 0.857959 0.874066 0.866158 0.865483 0.857339 0.866158 0.857959 0.857339 0.848963 0.866515 0.858249 0.857959 0.849476 0.858249 0.849642 0.849476 0.840727 0.857959 0.849476 0.848963 0.840361 0.849476 0.840727 0.840361 0.831545 0.924591 0.917426 0.916737 0.909515 0.917426 0.910294 0.909515 0.902254 0.916737 0.909515 0.907203 0.900085 0.909515 0.902254 0.900085 0.892865 0.910294 0.903144 0.902254 0.894926 0.903144 0.895929 0.894926 0.887503 0.902254 0.894926 0.892865 0.885534 0.894926 0.887503 0.885534 0.878068 0.957743 0.952573 0.942452 0.938074 0.952573 0.946904 0.938074 0.933156 0.942452 0.938074 0.926262 0.9226 0.938074 0.933156 0.9226 0.918377 0.946904 0.940841 0.933156 0.927784 0.940841 0.934475 0.927784 0.922035 0.933156 0.927784 0.918377 0.913662 0.927784 0.922035 0.913662 0.90852 0.934475 0.927879 0.922035 0.915976 0.927879 0.921112 0.915976 0.90966 0.922035 0.915976 0.90852 0.90301 0.915976 0.90966 0.90301 0.897178 0.921112 0.91421 0.90966 0.903127 0.91421 0.907203 0.903127 0.896406 0.90966 0.903127 0.897178 0.891069 0.903127 0.896406 0.891069 0.884701 -0.218473 -0.052445 -0.24395 -0.0768073 -0.421837 -0.24395 -0.436389 -0.258843 -0.24395 -0.0768073 -0.258843 -0.0918843 -0.052445 0.0991969 -0.0768073 0.0761303 0.0991969 0.235186 0.0761303 0.213502 -0.0768073 0.0761303 -0.0918843 0.0610498 0.0761303 0.213502 0.0610498 0.1986 -0.436389 -0.258843 -0.438926 -0.262882 -0.258843 -0.0918843 -0.262882 -0.0974453 -0.262882 -0.0974453 -0.256093 -0.0935014 -0.0918843 0.0610498 -0.0974453 0.0541762 0.0610498 0.1986 0.0541762 0.190691 -0.0974453 0.0541762 -0.0935014 0.0555133 0.0541762 0.190691 0.0555133 0.1898 0.235186 0.355525 0.213502 0.335247 0.213502 0.335247 0.1986 0.320676 0.1986 0.320676 0.190691 0.312015 0.190691 0.312015 0.1898 0.309307 0.979031 0.98767 0.971557 0.980748 0.98767 0.99376 0.980748 0.987348 0.971557 0.980748 0.964438 0.974094 0.980748 0.987348 0.974094 0.981129 0.964438 0.974094 0.957756 0.967764 0.974094 0.981129 0.967764 0.975144 0.957756 0.967764 0.951541 0.961804 0.967764 0.975144 0.961804 0.969445 -0.781518 -0.607657 -0.755913 -0.582985 -0.495984 -0.331646 -0.435512 -0.278871 -0.256093 -0.0935014 -0.238725 -0.080308 -0.238725 -0.080308 -0.211323 -0.0583642 -0.0935014 0.0555133 -0.080308 0.0648481 0.0555133 0.1898 0.0648481 0.195765 -0.080308 0.0648481 -0.0583642 0.0817587 0.0648481 0.195765 0.0817587 0.208248 -0.375057 -0.211323 -0.331646 -0.174718 -0.211323 -0.0583642 -0.174718 -0.0283952 -0.331646 -0.174718 -0.278871 -0.129955 -0.174718 -0.0283952 -0.129955 0.00868061 -0.0583642 0.0817587 -0.0283952 0.105634 0.0817587 0.208248 0.105634 0.22675 -0.0283952 0.105634 0.00868061 0.135703 0.105634 0.22675 0.135703 0.25064 0.1898 0.309307 0.195765 0.31244 0.195765 0.31244 0.208248 0.321148 0.31244 0.415449 0.321148 0.421016 0.208248 0.321148 0.22675 0.335039 0.321148 0.421016 0.335039 0.431028 0.22675 0.335039 0.25064 0.353603 0.335039 0.431028 0.353603 0.445079 0.431028 0.515497 0.445079 0.525776 0.515497 0.589364 0.525776 0.596523 0.951541 0.961804 0.945834 0.956246 0.961804 0.969445 0.956246 0.964059 0.945834 0.956246 0.940669 0.951118 0.956246 0.964059 0.951118 0.95901 0.969445 0.974805 0.964059 0.969605 0.974805 0.978183 0.969605 0.97318 0.964059 0.969605 0.95901 0.964669 0.969605 0.97318 0.964669 0.968376 0.978183 0.979834 0.97318 0.975039 0.979834 0.97999 0.975039 0.975408 0.97318 0.975039 0.968376 0.970387 0.975039 0.975408 0.970387 0.970914 -0.595728 -0.435512 -0.517905 -0.365761 -0.435512 -0.278871 -0.365761 -0.218145 -0.517905 -0.365761 -0.43106 -0.288581 -0.365761 -0.218145 -0.288581 -0.1511 -0.574943 -0.43106 -0.471567 -0.337664 -0.471567 -0.337664 -0.362849 -0.240209 -0.43106 -0.288581 -0.337664 -0.206031 -0.288581 -0.1511 -0.206031 -0.0794555 -0.337664 -0.206031 -0.240209 -0.120173 -0.206031 -0.0794555 -0.120173 -0.00492411 -0.278871 -0.129955 -0.218145 -0.0782953 -0.129955 0.00868061 -0.0782953 0.0517932 -0.218145 -0.0782953 -0.1511 -0.0211257 -0.0782953 0.0517932 -0.0211257 0.099774 0.00868061 0.135703 0.0517932 0.171072 0.135703 0.25064 0.171072 0.279183 0.0517932 0.171072 0.099774 0.210768 0.171072 0.279183 0.210768 0.311576 -0.1511 -0.0211257 -0.0794555 0.0401084 -0.0211257 0.099774 0.0401084 0.151413 -0.0794555 0.0401084 -0.00492411 0.103978 0.0401084 0.151413 0.103978 0.205515 0.099774 0.210768 0.151413 0.253784 0.210768 0.311576 0.253784 0.346987 0.151413 0.253784 0.205515 0.299124 0.25