# vtk DataFile Version 3.0
#This file was generated by the deal.II library on 2020/5/23 at 14:52:57
ASCII
DATASET UNSTRUCTURED_GRID

POINTS 136 double
-1 -1 0
-0.5 -1 0
-1 -0.5 0
-0.5 -0.5 0
-0.5 -1 0
0 -1 0
-0.5 -0.5 0
0 -0.5 0
0 -1 0
0.5 -1 0
0 -0.5 0
0.5 -0.5 0
0.5 -1 0
1 -1 0
0.5 -0.5 0
1 -0.5 0
0.5 -0.5 0
1 -0.5 0
0.5 0 0
1 0 0
-1 0 0
-0.5 0 0
-1 0.5 0
-0.5 0.5 0
-1 0.5 0
-0.5 0.5 0
-1 1 0
-0.5 1 0
-0.5 0.5 0
0 0.5 0
-0.5 1 0
0 1 0
0 0.5 0
0.5 0.5 0
0 1 0
0.5 1 0
0.5 0.5 0
1 0.5 0
0.5 1 0
1 1 0
-1 -0.5 0
-0.75 -0.5 0
-1 -0.25 0
-0.75 -0.25 0
-0.75 -0.5 0
-0.5 -0.5 0
-0.75 -0.25 0
-0.5 -0.25 0
-1 -0.25 0
-0.75 -0.25 0
-1 0 0
-0.75 0 0
-0.75 -0.25 0
-0.5 -0.25 0
-0.75 0 0
-0.5 0 0
-0.5 -0.5 0
-0.25 -0.5 0
-0.5 -0.25 0
-0.25 -0.25 0
-0.25 -0.5 0
0 -0.5 0
-0.25 -0.25 0
0 -0.25 0
-0.5 -0.25 0
-0.25 -0.25 0
-0.5 0 0
-0.25 0 0
-0.25 -0.25 0
0 -0.25 0
-0.25 0 0
0 0 0
0 -0.5 0
0.25 -0.5 0
0 -0.25 0
0.25 -0.25 0
0.25 -0.5 0
0.5 -0.5 0
0.25 -0.25 0
0.5 -0.25 0
0 -0.25 0
0.25 -0.25 0
0 0 0
0.25 0 0
0.25 -0.25 0
0.5 -0.25 0
0.25 0 0
0.5 0 0
-0.5 0 0
-0.25 0 0
-0.5 0.25 0
-0.25 0.25 0
-0.25 0 0
0 0 0
-0.25 0.25 0
0 0.25 0
-0.5 0.25 0
-0.25 0.25 0
-0.5 0.5 0
-0.25 0.5 0
-0.25 0.25 0
0 0.25 0
-0.25 0.5 0
0 0.5 0
0 0 0
0.25 0 0
0 0.25 0
0.25 0.25 0
0.25 0 0
0.5 0 0
0.25 0.25 0
0.5 0.25 0
0 0.25 0
0.25 0.25 0
0 0.5 0
0.25 0.5 0
0.25 0.25 0
0.5 0.25 0
0.25 0.5 0
0.5 0.5 0
0.5 0 0
0.75 0 0
0.5 0.25 0
0.75 0.25 0
0.75 0 0
1 0 0
0.75 0.25 0
1 0.25 0
0.5 0.25 0
0.75 0.25 0
0.5 0.5 0
0.75 0.5 0
0.75 0.25 0
1 0.25 0
0.75 0.5 0
1 0.5 0

CELLS 34 170
4	0	1	3	2
4	4	5	7	6
4	8	9	11	10
4	12	13	15	14
4	16	17	19	18
4	20	21	23	22
4	24	25	27	26
4	28	29	31	30
4	32	33	35	34
4	36	37	39	38
4	40	41	43	42
4	44	45	47	46
4	48	49	51	50
4	52	53	55	54
4	56	57	59	58
4	60	61	63	62
4	64	65	67	66
4	68	69	71	70
4	72	73	75	74
4	76	77	79	78
4	80	81	83	82
4	84	85	87	86
4	88	89	91	90
4	92	93	95	94
4	96	97	99	98
4	100	101	103	102
4	104	105	107	106
4	108	109	111	110
4	112	113	115	114
4	116	117	119	118
4	120	121	123	122
4	124	125	127	126
4	128	129	131	130
4	132	133	135	134

CELL_TYPES 34
 9 9 9 9 9 9 9 9 9 9 9 9 9 9 9 9 9 9 9 9 9 9 9 9 9 9 9 9 9 9 9 9 9 9
POINT_DATA 136
SCALARS x_displacement double 1
LOOKUP_TABLE default
0 0 0 0.00522218 0 0 0.00522218 0.00649552 0 0 0.00649552 0.00360624 0 0 0.00360624 0 0.00360624 0 0.0219485 0 0 0.0219485 0 0.00360624 0 0.00360624 0 0 0.00360624 0.00649552 0 0 0.00649552 0.00522218 0 0 0.00522218 0 0 0 0 0.00261109 0 0.00564078 0.00261109 0.00522218 0.00564078 0.00971382 0 0.00564078 0 0.0109743 0.00564078 0.00971382 0.0109743 0.0219485 0.00522218 0.00585885 0.00971382 0.0125746 0.00585885 0.00649552 0.0125746 0.0119569 0.00971382 0.0125746 0.0219485 0.0169604 0.0125746 0.0119569 0.0169604 0.0149668 0.00649552 0.00505088 0.0119569 0.0116141 0.00505088 0.00360624 0.0116141 0.0127774 0.0119569 0.0116141 0.0149668 0.0169604 0.0116141 0.0127774 0.0169604 0.0219485 0.0219485 0.0169604 0.0127774 0.0116141 0.0169604 0.0149668 0.0116141 0.0119569 0.0127774 0.0116141 0.00360624 0.00505088 0.0116141 0.0119569 0.00505088 0.00649552 0.0149668 0.0169604 0.0119569 0.0125746 0.0169604 0.0219485 0.0125746 0.00971382 0.0119569 0.0125746 0.00649552 0.00585885 0.0125746 0.00971382 0.00585885 0.00522218 0.0219485 0.0109743 0.00971382 0.00564078 0.0109743 0 0.00564078 0 0.00971382 0.00564078 0.00522218 0.00261109 0.00564078 0 0.00261109 0 
SCALARS y_displacement double 1
LOOKUP_TABLE default
0 0 0 0.00351314 0 0 0.00351314 0.0051379 0 0 0.0051379 0.000621891 0 0 0.000621891 0 0.000621891 0 0.00273582 0 0 0.00273582 0 0.000621891 0 0.000621891 0 0 0.000621891 0.0051379 0 0 0.0051379 0.00351314 0 0 0.00351314 0 0 0 0 0.00175657 0 0.00311471 0.00175657 0.00351314 0.00311471 0.00337451 0 0.00311471 0 0.00136791 0.00311471 0.00337451 0.00136791 0.00273582 0.00351314 0.00432552 0.00337451 0.00512708 0.00432552 0.0051379 0.00512708 0.00911176 0.00337451 0.00512708 0.00273582 0.00599077 0.00512708 0.00911176 0.00599077 0.0152268 0.0051379 0.00287989 0.00911176 0.00611922 0.00287989 0.000621891 0.00611922 0.00167885 0.00911176 0.00611922 0.0152268 0.00599077 0.00611922 0.00167885 0.00599077 0.00273582 0.00273582 0.00599077 0.00167885 0.00611922 0.00599077 0.0152268 0.00611922 0.00911176 0.00167885 0.00611922 0.000621891 0.00287989 0.00611922 0.00911176 0.00287989 0.0051379 0.0152268 0.00599077 0.00911176 0.00512708 0.00599077 0.00273582 0.00512708 0.00337451 0.00911176 0.00512708 0.0051379 0.00432552 0.00512708 0.00337451 0.00432552 0.00351314 0.00273582 0.00136791 0.00337451 0.00311471 0.00136791 0 0.00311471 0 0.00337451 0.00311471 0.00351314 0.00175657 0.00311471 0 0.00175657 0 
