# vtk DataFile Version 3.0
#This file was generated by the deal.II library on 2020/5/23 at 14:52:57
ASCII
DATASET UNSTRUCTURED_GRID

POINTS 1972 double
-0.5 -1 0
-0.25 -1 0
-0.5 -0.75 0
-0.25 -0.75 0
-0.25 -1 0
0 -1 0
-0.25 -0.75 0
0 -0.75 0
0.25 -1 0
0.5 -1 0
0.25 -0.75 0
0.5 -0.75 0
-0.5 0.75 0
-0.25 0.75 0
-0.5 1 0
-0.25 1 0
0 0.75 0
0.25 0.75 0
0 1 0
0.25 1 0
0.25 0.75 0
0.5 0.75 0
0.25 1 0
0.5 1 0
-1 -1 0
-0.75 -1 0
-1 -0.75 0
-0.75 -0.75 0
-0.75 -1 0
-0.5 -1 0
-0.75 -0.75 0
-0.5 -0.75 0
0.5 -1 0
0.75 -1 0
0.5 -0.75 0
0.75 -0.75 0
0.75 -1 0
1 -1 0
0.75 -0.75 0
1 -0.75 0
-1 0.75 0
-0.75 0.75 0
-1 1 0
-0.75 1 0
-0.75 0.75 0
-0.5 0.75 0
-0.75 1 0
-0.5 1 0
0.5 0.75 0
0.75 0.75 0
0.5 1 0
0.75 1 0
0.75 0.75 0
1 0.75 0
0.75 1 0
1 1 0
-0.25 -0.5 0
-0.125 -0.5 0
-0.25 -0.375 0
-0.125 -0.375 0
-0.25 -0.375 0
-0.125 -0.375 0
-0.25 -0.25 0
-0.125 -0.25 0
0.125 -0.5 0
0.25 -0.5 0
0.125 -0.375 0
0.25 -0.375 0
0.125 -0.375 0
0.25 -0.375 0
0.125 -0.25 0
0.25 -0.25 0
0.25 -0.5 0
0.375 -0.5 0
0.25 -0.375 0
0.375 -0.375 0
0.375 -0.5 0
0.5 -0.5 0
0.375 -0.375 0
0.5 -0.375 0
0.25 -0.375 0
0.375 -0.375 0
0.25 -0.25 0
0.375 -0.25 0
-0.375 0.25 0
-0.25 0.25 0
-0.375 0.375 0
-0.25 0.375 0
-0.5 0.375 0
-0.375 0.375 0
-0.5 0.5 0
-0.375 0.5 0
-0.375 0.375 0
-0.25 0.375 0
-0.375 0.5 0
-0.25 0.5 0
-0.25 0.25 0
-0.125 0.25 0
-0.25 0.375 0
-0.125 0.375 0
-0.25 0.375 0
-0.125 0.375 0
-0.25 0.5 0
-0.125 0.5 0
0.125 0.25 0
0.25 0.25 0
0.125 0.375 0
0.25 0.375 0
0.125 0.375 0
0.25 0.375 0
0.125 0.5 0
0.25 0.5 0
-0.75 -0.5 0
-0.625 -0.5 0
-0.75 -0.375 0
-0.625 -0.375 0
-0.625 -0.5 0
-0.5 -0.5 0
-0.625 -0.375 0
-0.5 -0.375 0
-0.75 -0.375 0
-0.625 -0.375 0
-0.75 -0.25 0
-0.625 -0.25 0
-1 -0.25 0
-0.875 -0.25 0
-1 -0.125 0
-0.875 -0.125 0
-0.875 -0.25 0
-0.75 -0.25 0
-0.875 -0.125 0
-0.75 -0.125 0
-1 -0.125 0
-0.875 -0.125 0
-1 0 0
-0.875 0 0
-0.5 -0.5 0
-0.375 -0.5 0
-0.5 -0.375 0
-0.375 -0.375 0
-0.375 -0.5 0
-0.25 -0.5 0
-0.375 -0.375 0
-0.25 -0.375 0
-0.375 -0.375 0
-0.25 -0.375 0
-0.375 -0.25 0
-0.25 -0.25 0
0.25 0.25 0
0.375 0.25 0
0.25 0.375 0
0.375 0.375 0
0.25 0.375 0
0.375 0.375 0
0.25 0.5 0
0.375 0.5 0
0.375 0.375 0
0.5 0.375 0
0.375 0.5 0
0.5 0.5 0
0.875 0 0
1 0 0
0.875 0.125 0
1 0.125 0
0.75 0.125 0
0.875 0.125 0
0.75 0.25 0
0.875 0.25 0
0.875 0.125 0
1 0.125 0
0.875 0.25 0
1 0.25 0
0.625 0.25 0
0.75 0.25 0
0.625 0.375 0
0.75 0.375 0
0.5 0.375 0
0.625 0.375 0
0.5 0.5 0
0.625 0.5 0
0.625 0.375 0
0.75 0.375 0
0.625 0.5 0
0.75 0.5 0
0.875 -0.25 0
1 -0.25 0
0.875 -0.125 0
1 -0.125 0
0.875 -0.125 0
1 -0.125 0
0.875 0 0
1 0 0
-1 0 0
-0.875 0 0
-1 0.125 0
-0.875 0.125 0
-1 0.125 0
-0.875 0.125 0
-1 0.25 0
-0.875 0.25 0
0.25 -0.75 0
0.375 -0.75 0
0.25 -0.625 0
0.375 -0.625 0
0.375 -0.75 0
0.5 -0.75 0
0.375 -0.625 0
0.5 -0.625 0
0.25 -0.625 0
0.375 -0.625 0
0.25 -0.5 0
0.375 -0.5 0
0.375 -0.625 0
0.5 -0.625 0
0.375 -0.5 0
0.5 -0.5 0
-0.5 0.5 0
-0.375 0.5 0
-0.5 0.625 0
-0.375 0.625 0
-0.375 0.5 0
-0.25 0.5 0
-0.375 0.625 0
-0.25 0.625 0
-0.5 0.625 0
-0.375 0.625 0
-0.5 0.75 0
-0.375 0.75 0
-0.375 0.625 0
-0.25 0.625 0
-0.375 0.75 0
-0.25 0.75 0
-1 -0.5 0
-0.875 -0.5 0
-1 -0.375 0
-0.875 -0.375 0
-0.875 -0.5 0
-0.75 -0.5 0
-0.875 -0.375 0
-0.75 -0.375 0
-1 -0.375 0
-0.875 -0.375 0
-1 -0.25 0
-0.875 -0.25 0
-0.875 -0.375 0
-0.75 -0.375 0
-0.875 -0.25 0
-0.75 -0.25 0
0.75 0.25 0
0.875 0.25 0
0.75 0.375 0
0.875 0.375 0
0.875 0.25 0
1 0.25 0
0.875 0.375 0
1 0.375 0
0.75 0.375 0
0.875 0.375 0
0.75 0.5 0
0.875 0.5 0
0.875 0.375 0
1 0.375 0
0.875 0.5 0
1 0.5 0
0.75 -0.5 0
0.875 -0.5 0
0.75 -0.375 0
0.875 -0.375 0
0.875 -0.5 0
1 -0.5 0
0.875 -0.375 0
1 -0.375 0
0.75 -0.375 0
0.875 -0.375 0
0.75 -0.25 0
0.875 -0.25 0
0.875 -0.375 0
1 -0.375 0
0.875 -0.25 0
1 -0.25 0
-1 0.25 0
-0.875 0.25 0
-1 0.375 0
-0.875 0.375 0
-0.875 0.25 0
-0.75 0.25 0
-0.875 0.375 0
-0.75 0.375 0
-1 0.375 0
-0.875 0.375 0
-1 0.5 0
-0.875 0.5 0
-0.875 0.375 0
-0.75 0.375 0
-0.875 0.5 0
-0.75 0.5 0
-0.5 -0.75 0
-0.375 -0.75 0
-0.5 -0.625 0
-0.375 -0.625 0
-0.375 -0.75 0
-0.25 -0.75 0
-0.375 -0.625 0
-0.25 -0.625 0
-0.5 -0.625 0
-0.375 -0.625 0
-0.5 -0.5 0
-0.375 -0.5 0
-0.375 -0.625 0
-0.25 -0.625 0
-0.375 -0.5 0
-0.25 -0.5 0
-0.25 -0.75 0
-0.125 -0.75 0
-0.25 -0.625 0
-0.125 -0.625 0
-0.125 -0.75 0
0 -0.75 0
-0.125 -0.625 0
0 -0.625 0
-0.25 -0.625 0
-0.125 -0.625 0
-0.25 -0.5 0
-0.125 -0.5 0
-0.125 -0.625 0
0 -0.625 0
-0.125 -0.5 0
0 -0.5 0
0 -1 0
0.125 -1 0
0 -0.875 0
0.125 -0.875 0
0.125 -1 0
0.25 -1 0
0.125 -0.875 0
0.25 -0.875 0
0 -0.875 0
0.125 -0.875 0
0 -0.75 0
0.125 -0.75 0
0.125 -0.875 0
0.25 -0.875 0
0.125 -0.75 0
0.25 -0.75 0
0 -0.75 0
0.125 -0.75 0
0 -0.625 0
0.125 -0.625 0
0.125 -0.75 0
0.25 -0.75 0
0.125 -0.625 0
0.25 -0.625 0
0 -0.625 0
0.125 -0.625 0
0 -0.5 0
0.125 -0.5 0
0.125 -0.625 0
0.25 -0.625 0
0.125 -0.5 0
0.25 -0.5 0
-0.25 0.5 0
-0.125 0.5 0
-0.25 0.625 0
-0.125 0.625 0
-0.125 0.5 0
0 0.5 0
-0.125 0.625 0
0 0.625 0
-0.25 0.625 0
-0.125 0.625 0
-0.25 0.75 0
-0.125 0.75 0
-0.125 0.625 0
0 0.625 0
-0.125 0.75 0
0 0.75 0
-0.25 0.75 0
-0.125 0.75 0
-0.25 0.875 0
-0.125 0.875 0
-0.125 0.75 0
0 0.75 0
-0.125 0.875 0
0 0.875 0
-0.25 0.875 0
-0.125 0.875 0
-0.25 1 0
-0.125 1 0
-0.125 0.875 0
0 0.875 0
-0.125 1 0
0 1 0
0 0.5 0
0.125 0.5 0
0 0.625 0
0.125 0.625 0
0.125 0.5 0
0.25 0.5 0
0.125 0.625 0
0.25 0.625 0
0 0.625 0
0.125 0.625 0
0 0.75 0
0.125 0.75 0
0.125 0.625 0
0.25 0.625 0
0.125 0.75 0
0.25 0.75 0
0.25 0.5 0
0.375 0.5 0
0.25 0.625 0
0.375 0.625 0
0.375 0.5 0
0.5 0.5 0
0.375 0.625 0
0.5 0.625 0
0.25 0.625 0
0.375 0.625 0
0.25 0.75 0
0.375 0.75 0
0.375 0.625 0
0.5 0.625 0
0.375 0.75 0
0.5 0.75 0
-1 -0.75 0
-0.875 -0.75 0
-1 -0.625 0
-0.875 -0.625 0
-0.875 -0.75 0
-0.75 -0.75 0
-0.875 -0.625 0
-0.75 -0.625 0
-1 -0.625 0
-0.875 -0.625 0
-1 -0.5 0
-0.875 -0.5 0
-0.875 -0.625 0
-0.75 -0.625 0
-0.875 -0.5 0
-0.75 -0.5 0
-0.75 -0.75 0
-0.625 -0.75 0
-0.75 -0.625 0
-0.625 -0.625 0
-0.625 -0.75 0
-0.5 -0.75 0
-0.625 -0.625 0
-0.5 -0.625 0
-0.75 -0.625 0
-0.625 -0.625 0
-0.75 -0.5 0
-0.625 -0.5 0
-0.625 -0.625 0
-0.5 -0.625 0
-0.625 -0.5 0
-0.5 -0.5 0
0.5 -0.75 0
0.625 -0.75 0
0.5 -0.625 0
0.625 -0.625 0
0.625 -0.75 0
0.75 -0.75 0
0.625 -0.625 0
0.75 -0.625 0
0.5 -0.625 0
0.625 -0.625 0
0.5 -0.5 0
0.625 -0.5 0
0.625 -0.625 0
0.75 -0.625 0
0.625 -0.5 0
0.75 -0.5 0
0.75 -0.75 0
0.875 -0.75 0
0.75 -0.625 0
0.875 -0.625 0
0.875 -0.75 0
1 -0.75 0
0.875 -0.625 0
1 -0.625 0
0.75 -0.625 0
0.875 -0.625 0
0.75 -0.5 0
0.875 -0.5 0
0.875 -0.625 0
1 -0.625 0
0.875 -0.5 0
1 -0.5 0
-1 0.5 0
-0.875 0.5 0
-1 0.625 0
-0.875 0.625 0
-0.875 0.5 0
-0.75 0.5 0
-0.875 0.625 0
-0.75 0.625 0
-1 0.625 0
-0.875 0.625 0
-1 0.75 0
-0.875 0.75 0
-0.875 0.625 0
-0.75 0.625 0
-0.875 0.75 0
-0.75 0.75 0
-0.75 0.5 0
-0.625 0.5 0
-0.75 0.625 0
-0.625 0.625 0
-0.625 0.5 0
-0.5 0.5 0
-0.625 0.625 0
-0.5 0.625 0
-0.75 0.625 0
-0.625 0.625 0
-0.75 0.75 0
-0.625 0.75 0
-0.625 0.625 0
-0.5 0.625 0
-0.625 0.75 0
-0.5 0.75 0
0.5 0.5 0
0.625 0.5 0
0.5 0.625 0
0.625 0.625 0
0.625 0.5 0
0.75 0.5 0
0.625 0.625 0
0.75 0.625 0
0.5 0.625 0
0.625 0.625 0
0.5 0.75 0
0.625 0.75 0
0.625 0.625 0
0.75 0.625 0
0.625 0.75 0
0.75 0.75 0
0.75 0.5 0
0.875 0.5 0
0.75 0.625 0
0.875 0.625 0
0.875 0.5 0
1 0.5 0
0.875 0.625 0
1 0.625 0
0.75 0.625 0
0.875 0.625 0
0.75 0.75 0
0.875 0.75 0
0.875 0.625 0
1 0.625 0
0.875 0.75 0
1 0.75 0
-0.625 -0.125 0
-0.5625 -0.125 0
-0.625 -0.0625 0
-0.5625 -0.0625 0
-0.625 -0.0625 0
-0.5625 -0.0625 0
-0.625 0 0
-0.5625 0 0
-0.5625 -0.0625 0
-0.5 -0.0625 0
-0.5625 0 0
-0.5 0 0
-0.5 -0.0625 0
-0.4375 -0.0625 0
-0.5 0 0
-0.4375 0 0
-0.4375 -0.0625 0
-0.375 -0.0625 0
-0.4375 0 0
-0.375 0 0
-0.125 -0.125 0
-0.0625 -0.125 0
-0.125 -0.0625 0
-0.0625 -0.0625 0
0.0625 -0.125 0
0.125 -0.125 0
0.0625 -0.0625 0
0.125 -0.0625 0
0.375 -0.125 0
0.4375 -0.125 0
0.375 -0.0625 0
0.4375 -0.0625 0
0.4375 -0.125 0
0.5 -0.125 0
0.4375 -0.0625 0
0.5 -0.0625 0
0.375 -0.0625 0
0.4375 -0.0625 0
0.375 0 0
0.4375 0 0
0.4375 -0.0625 0
0.5 -0.0625 0
0.4375 0 0
0.5 0 0
-0.5 0 0
-0.4375 0 0
-0.5 0.0625 0
-0.4375 0.0625 0
-0.4375 0 0
-0.375 0 0
-0.4375 0.0625 0
-0.375 0.0625 0
-0.5 0.0625 0
-0.4375 0.0625 0
-0.5 0.125 0
-0.4375 0.125 0
-0.4375 0.0625 0
-0.375 0.0625 0
-0.4375 0.125 0
-0.375 0.125 0
-0.125 0.0625 0
-0.0625 0.0625 0
-0.125 0.125 0
-0.0625 0.125 0
0.0625 0.0625 0
0.125 0.0625 0
0.0625 0.125 0
0.125 0.125 0
0.4375 0 0
0.5 0 0
0.4375 0.0625 0
0.5 0.0625 0
0.375 0.0625 0
0.4375 0.0625 0
0.375 0.125 0
0.4375 0.125 0
0.5 0 0
0.5625 0 0
0.5 0.0625 0
0.5625 0.0625 0
0.5625 0 0
0.625 0 0
0.5625 0.0625 0
0.625 0.0625 0
0.5 0.0625 0
0.5625 0.0625 0
0.5 0.125 0
0.5625 0.125 0
0.5625 0.0625 0
0.625 0.0625 0
0.5625 0.125 0
0.625 0.125 0
-0.75 -0.125 0
-0.6875 -0.125 0
-0.75 -0.0625 0
-0.6875 -0.0625 0
-0.6875 -0.125 0
-0.625 -0.125 0
-0.6875 -0.0625 0
-0.625 -0.0625 0
-0.75 -0.0625 0
-0.6875 -0.0625 0
-0.75 0 0
-0.6875 0 0
-0.6875 -0.0625 0
-0.625 -0.0625 0
-0.6875 0 0
-0.625 0 0
-0.5 -0.25 0
-0.4375 -0.25 0
-0.5 -0.1875 0
-0.4375 -0.1875 0
-0.4375 -0.25 0
-0.375 -0.25 0
-0.4375 -0.1875 0
-0.375 -0.1875 0
-0.5 -0.1875 0
-0.4375 -0.1875 0
-0.5 -0.125 0
-0.4375 -0.125 0
-0.4375 -0.1875 0
-0.375 -0.1875 0
-0.4375 -0.125 0
-0.375 -0.125 0
-0.375 -0.25 0
-0.3125 -0.25 0
-0.375 -0.1875 0
-0.3125 -0.1875 0
-0.3125 -0.25 0
-0.25 -0.25 0
-0.3125 -0.1875 0
-0.25 -0.1875 0
-0.375 -0.1875 0
-0.3125 -0.1875 0
-0.375 -0.125 0
-0.3125 -0.125 0
-0.3125 -0.1875 0
-0.25 -0.1875 0
-0.3125 -0.125 0
-0.25 -0.125 0
-0.375 -0.125 0
-0.3125 -0.125 0
-0.375 -0.0625 0
-0.3125 -0.0625 0
-0.3125 -0.125 0
-0.25 -0.125 0
-0.3125 -0.0625 0
-0.25 -0.0625 0
-0.375 -0.0625 0
-0.3125 -0.0625 0
-0.375 0 0
-0.3125 0 0
-0.3125 -0.0625 0
-0.25 -0.0625 0
-0.3125 0 0
-0.25 0 0
-0.125 -0.25 0
-0.0625 -0.25 0
-0.125 -0.1875 0
-0.0625 -0.1875 0
-0.0625 -0.25 0
0 -0.25 0
-0.0625 -0.1875 0
0 -0.1875 0
-0.125 -0.1875 0
-0.0625 -0.1875 0
-0.125 -0.125 0
-0.0625 -0.125 0
-0.0625 -0.1875 0
0 -0.1875 0
-0.0625 -0.125 0
0 -0.125 0
-0.25 -0.125 0
-0.1875 -0.125 0
-0.25 -0.0625 0
-0.1875 -0.0625 0
-0.1875 -0.125 0
-0.125 -0.125 0
-0.1875 -0.0625 0
-0.125 -0.0625 0
-0.25 -0.0625 0
[...]
POINT_DATA 1972
SCALARS x_displacement double 1
LOOKUP_TABLE default
0 0 0.00341124 0.00376328 0 0 0.00376328 0.00292003 0 0 0.0013386 0.00034089 0.00034084 0.00133855 0 0 0.00292002 0.00376335 0 0 0.00376335 0.00341137 0 0 0 0 0 0.00228551 0 0 0.00228551 0.00341124 0 0 0.00034089 0.00017975 0 0 0.00017975 0 0 0.000179715 0 0 0.000179715 0.00034084 0 0 0.00341137 0.00228561 0 0 0.00228561 0 0 0 0.00921079 0.00896513 0.0130651 0.0127651 0.0130651 0.0127651 0.0176208 0.0169224 0.00658058 0.00522163 0.00969369 0.0083245 0.00969369 0.0083245 0.0132709 0.012579 0.00522163 0.00408058 0.0083245 0.00719685 0.00408058 0.0031682 0.00719685 0.00621508 0.0083245 0.00719685 0.012579 0.0123061 0.0123057 0.0125785 0.00719656 0.00832424 0.00621475 0.00719656 0.00316802 0.0040804 0.00719656 0.00832424 0.0040804 0.00522147 0.0125785 0.0132706 0.00832424 0.00969349 0.00832424 0.00969349 0.00522147 0.00658047 0.0169223 0.0176208 0.0127652 0.0130654 0.0127652 0.0130654 0.00896519 0.00921098 0.00431499 0.0060443 0.00600591 0.00850974 0.0060443 0.00751684 0.00850974 0.0106589 0.00600591 0.00850974 0.00851787 0.0123214 0 0.00422424 0 0.00535011 0.00422424 0.00851787 0.00535011 0.0113974 0 0.00535011 0 0.00573249 0.00751684 0.0086549 0.0106589 0.0122249 0.0086549 0.00921079 0.0122249 0.0130651 0.0122249 0.0130651 0.0170276 0.0176208 0.0176208 0.0170287 0.0130654 0.0122255 0.0130654 0.0122255 0.00921098 0.00865524 0.0122255 0.0106598 0.00865524 0.0075173 0.00573231 0 0.00534989 0 0.0113967 0.00534989 0.00851746 0.00422409 0.00534989 0 0.00422409 0 0.0123223 0.00851746 0.0085105 0.00600616 0.0106598 0.0085105 0.0075173 0.00604474 0.0085105 0.00600616 0.00604474 0.00431526 0.00333874 0 0.00485326 0 0.00485326 0 0.00573231 0 0 0.00573249 0 0.0048533 0 0.0048533 0 0.00333866 0.0013386 0.000839744 0.00299304 0.00204672 0.000839744 0.00034089 0.00204672 0.00141248 0.00299304 0.00204672 0.00522163 0.00408058 0.00204672 0.00141248 0.00408058 0.0031682 0.00316802 0.0040804 0.00141238 0.00204663 0.0040804 0.00522147 0.00204663 0.00299295 0.00141238 0.00204663 0.00034084 0.000839697 0.00204663 0.00299295 0.000839697 0.00133855 0 0.00230762 0 0.00313141 0.00230762 0.00431499 0.00313141 0.00600591 0 0.00313141 0 0.00422424 0.00313141 0.00600591 0.00422424 0.00851787 0.00851746 0.00422409 0.00600616 0.00313142 0.00422409 0 0.00313142 0 0.00600616 0.00313142 0.00431526 0.00230771 0.00313142 0 0.00230771 0 0.00182811 0.00103435 0.00365345 0.00195505 0.00103435 0 0.00195505 0 0.00365345 0.00195505 0.00660643 0.00333874 0.00195505 0 0.00333874 0 0 0.00333866 0 0.00195496 0.00333866 0.00660614 0.00195496 0.00365323 0 0.00195496 0 0.00103429 0.00195496 0.00365323 0.00103429 0.00182798 0.00341124 0.00358726 0.00521114 0.005895 0.00358726 0.00376328 0.005895 0.00613539 0.00521114 0.005895 0.00751684 0.0086549 0.005895 0.00613539 0.0086549 0.00921079 0.00376328 0.00334166 0.00613539 0.0058913 0.00334166 0.00292003 0.0058913 0.0050965 0.00613539 0.0058913 0.00921079 0.00896513 0.0058913 0.0050965 0.00896513 0.00798855 0 0 0.00146001 0.000959327 0 0 0.000959327 0.000669299 0.00146001 0.000959327 0.00292003 0.00219815 0.000959327 0.000669299 0.00219815 0.0013386 0.00292003 0.00219815 0.0050965 0.00405627 0.00219815 0.0013386 0.00405627 0.00299304 0.0050965 0.00405627 0.00798855 0.00658058 0.00405627 0.00299304 0.00658058 0.00522163 0.00522147 0.00658047 0.00299295 0.00405621 0.00658047 0.00798851 0.00405621 0.00509648 0.00299295 0.00405621 0.00133855 0.00219812 0.00405621 0.00509648 0.00219812 0.00292002 0.00133855 0.00219812 0.000669277 0.000959312 0.00219812 0.00292002 0.000959312 0.00146001 0.000669277 0.000959312 0 0 0.000959312 0.00146001 0 0 0.00798851 0.00896519 0.00509648 0.00589134 0.00896519 0.00921098 0.00589134 0.0061355 0.00509648 0.00589134 0.00292002 0.00334168 0.00589134 0.0061355 0.00334168 0.00376335 0.00921098 0.00865524 0.0061355 0.00589519 0.00865524 0.0075173 0.00589519 0.00521138 0.0061355 0.00589519 0.00376335 0.00358736 0.00589519 0.00521138 0.00358736 0.00341137 0 0.00114275 0 0.00172744 0.00114275 0.00228551 0.00172744 0.00309864 0 0.00172744 0 0.00230762 0.00172744 0.00309864 0.00230762 0.00431499 0.00228551 0.00284838 0.00309864 0.00430643 0.00284838 0.00341124 0.00430643 0.00521114 0.00309864 0.00430643 0.00431499 0.0060443 0.00430643 0.00521114 0.0060443 0.00751684 0.00034089 0.00026032 0.00141248 0.00100814 0.00026032 0.00017975 0.00100814 0.000744044 0.00141248 0.00100814 0.0031682 0.00252288 0.00100814 0.000744044 0.00252288 0.00182811 0.00017975 8.98748e-05 0.000744044 0.000466672 8.98748e-05 0 0.000466672 0 0.000744044 0.000466672 0.00182811 0.00103435 0.000466672 0 0.00103435 0 0 0.00103429 0 0.000466637 0.00103429 0.00182798 0.000466637 0.000743975 0 0.000466637 0 8.98574e-05 0.000466637 0.000743975 8.98574e-05 0.000179715 0.00182798 0.0025227 0.000743975 0.00100805 0.0025227 0.00316802 0.00100805 0.00141238 0.000743975 0.00100805 0.000179715 0.000260277 0.00100805 0.00141238 0.000260277 0.00034084 0.0075173 0.00604474 0.00521138 0.00430668 0.00604474 0.00431526 0.00430668 0.00309882 0.00521138 0.00430668 0.00341137 0.00284849 0.00430668 0.00309882 0.00284849 0.00228561 0.00431526 0.00230771 0.00309882 0.00172751 0.00230771 0 0.00172751 0 0.00309882 0.00172751 0.00228561 0.0011428 0.00172751 0 0.0011428 0 0.018271 0.0209595 0.0200559 0.0227629 0.0200559 0.0227629 0.0203552 0.0229996 0.0227629 0.0244507 0.0229996 0.0246411 0.0244507 0.0251886 0.0246411 0.0252846 0.0251886 0.0249891 0.0252846 0.0249383 0.0197207 0.0187944 0.0201621 0.0193467 0.0174399 0.0171611 0.0187136 0.0188046 0.0203464 0.0208662 0.0233767 0.0238259 0.0208662 0.0204351 0.0238259 0.023294 0.0233767 0.0238259 0.024946 0.0252927 0.0238259 0.023294 0.0252927 0.0246433 0.0246411 0.0252846 0.0232897 0.0238247 0.0252846 0.0249383 0.0238247 0.023376 0.0232897 0.0238247 0.0204335 0.0208652 0.0238247 0.023376 0.0208652 0.0203457 0.0188049 0.0187137 0.0171611 0.0174399 0.0193464 0.0201615 0.0187942 0.0197203 0.0252927 0.0246433 0.025211 0.0244696 0.0249812 0.025211 0.02333 0.0234734 0.0246433 0.0230038 0.0244696 0.0227516 0.0230038 0.0203527 0.0227516 0.0200536 0.0244696 0.0227516 0.0226856 0.0209471 0.0227516 0.0200536 0.0209471 0.0182685 0.0113974 0.0147496 0.0124608 0.0164012 0.0147496 0.018271 0.0164012 0.0200559 0.0124608 0.0164012 0.012652 0.0166809 0.0164012 0.0200559 0.0166809 0.0203552 0.0153765 0.0163801 0.0191254 0.0199751 0.0163801 0.0170276 0.0199751 0.0200685 0.0191254 0.0199751 0.0226655 0.0234515 0.0199751 0.0200685 0.0234515 0.0233427 0.0170276 0.0173242 0.0200685 0.0200279 0.0173242 0.0176208 0.0200279 0.019779 0.0200685 0.0200279 0.0233427 0.0223787 0.0200279 0.019779 0.0223787 0.0215503 0.0233427 0.0223787 0.0249891 0.0238177 0.0223787 0.0215503 0.0238177 0.0223684 0.0249891 0.0238177 0.0249383 0.0236031 0.0238177 0.0223684 0.0236031 0.0219528 0.0169224 0.0160648 0.0186053 0.0176392 0.0160648 0.0150348 0.0176392 0.0166762 0.0186053 0.0176392 0.0197207 0.0187944 0.0176392 0.0166762 0.0187944 0.017987 0.0215503 0.0207043 0.0223684 0.0211705 0.0207043 0.0197207 0.0211705 0.0201621 0.0223684 0.0211705 0.0219528 0.0207045 0.0211705 0.0201621 0.0207045 0.0198728 0.0150348 0.0140425 0.0166762 0.0158247 0.0140425 0.0132709 0.0158247 0.0152081 0.0166762 0.0158247 0.017987 0.0174399 0.0158247 0.0152081 0.0174399 0.0171611 0.0171611 0.0172552 0.0188046 0.0193208 0.0172552 0.0179172 0.0193208 0.0203594 0.0188046 0.0193208 0.0198722 0.0207035 0.0193208 0.0203594 0.0207035 0.0219511 0.0123061 0.0121088 0.0160717 0.0163912 0.0121088 0.0115863 0.0163912 0.0159967 0.0160717 0.0163912 0.0203464 0.0208662 0.0163912 0.0159967 0.0208662 0.0204351 0.0179172 0.0190201 0.0203594 0.0219836 0.0190201 0.0203464 0.0219836 0.0233767 0.0203594 0.0219836 0.0219511 0.023599 0.0219836 0.0233767 0.023599 0.024946 0.0249383 0.0236031 0.023376 0.0219809 0.0236031 0.0219528 0.0219809 0.0203598 0.023376 0.0219809 0.0203457 0.0190191 0.0219809 0.0203598 0.0190191 0.0179163 0.0204335 0.0208652 0.0159957 0.0163905 0.0208652 0.0203457 0.0163905 0.0160711 0.0159957 0.0163905 0.0115857 0.0121083 0.0163905 0.0160711 0.0121083 0.0123057 0.0219528 0.0207045 0.0203598 0.0193212 0.0207045 0.0198728 0.0193212 0.0188049 0.0203598 0.0193212 0.0179163 0.0172551 0.0193212 0.0188049 0.0172551 0.0171611 0.0171611 0.0174399 0.0152079 0.0158246 0.0174399 0.0179869 0.0158246 0.0166761 0.0152079 0.0158246 0.0132706 0.0140423 0.0158246 0.0166761 0.0140423 0.0150347 0.0198722 0.0207035 0.0201615 0.0211695 0.0207035 0.0219511 0.0211695 0.0223666 0.0201615 0.0211695 0.0197203 0.0207037 0.0211695 0.0223666 0.0207037 0.0215495 0.0179869 0.0187942 0.0166761 0.0176391 0.0187942 0.0197203 0.0176391 0.0186051 0.0166761 0.0176391 0.0150347 0.0160648 0.0176391 0.0186051 0.0160648 0.0169223 0.0219511 0.023599 0.0223666 0.0238142 0.023599 0.024946 0.0238142 0.0249812 0.0223666 0.0238142 0.0215495 0.0223788 0.0238142 0.0249812 0.0223788 0.02333 0.02333 0.0234734 0.0200729 0.0199775 0.0234734 0.0226856 0.0199775 0.0191294 0.0200729 0.0199775 0.0170287 0.016382 0.0199775 0.0191294 0.016382 0.0153788 0.0203527 0.01668 0.0200536 0.0163999 0.01668 0.0126514 0.0163999 0.0124601 0.0200536 0.0163999 0.0182685 0.0147483 0.0163999 0.0124601 0.0147483 0.0113967 0.0115863 0.0107179 0.0159967 0.0148099 0.0107179 0.00957733 0.0148099 0.0128711 0.0159967 0.0148099 0.0204351 0.0190455 0.0148099 0.0128711 0.0190455 0.0166865 0.0204351 0.0190455 0.023294 0.0217639 0.0190455 0.0166865 0.0217639 0.0192366 0.023294 0.0217639 0.0246433 0.0230038 0.0217639 0.0192366 0.0230038 0.0203527 0.0166865 0.01348 0.0192366 0.0157315 0.01348 0.0104124 0.0157315 0.0119262 0.0192366 0.0157315 0.0203527 0.01668 0.0157315 0.0119262 0.01668 0.0126514 0.012652 0.0166809 0.0119265 0.015732 0.0166809 0.0203552 0.015732 0.0192358 0.0119265 0.015732 0.0104124 0.0134796 0.015732 0.0192358 0.0134796 0.0166856 0.0203552 0.0229996 0.0192358 0.0217621 0.0229996 0.0246411 0.0217621 0.0232897 0.0192358 0.0217621 0.0166856 0.0190437 0.0217621 0.0232897 0.0190437 0.0204335 0.0166856 0.0190437 0.0128702 0.0148089 0.0190437 0.0204335 0.0148089 0.0159957 0.0128702 0.0148089 0.00957671 0.0107172 0.0148089 0.0159957 0.0107172 0.0115857 0.00851787 0.0104196 0.00995764 0.0125832 0.0104196 0.0123214 0.0125832 0.0151134 0.00995764 0.0125832 0.0113974 0.0147496 0.0125832 0.0151134 0.0147496 0.018271 0.0123214 0.0140098 0.0151134 0.0174856 0.0140098 0.0153765 0.0174856 0.0191254 0.0151134 0.0174856 0.018271 0.0209595 0.0174856 0.0191254 0.0209595 0.0226655 0.0176208 0.0172716 0.019779 0.0193693 0.0172716 0.0169224 0.0193693 0.0186053 0.019779 0.0193693 0.0215503 0.0207043 0.0193693 0.0186053 0.0207043 0.0197207 0.0132709 0.012925 0.0152081 0.0149728 0.012925 0.012579 0.0149728 0.015193 0.0152081 0.0149728 0.0171611 0.0172552 0.0149728 0.015193 0.0172552 0.0179172 0.012579 0.0124426 0.015193 0.015616 0.0124426 0.0123061 0.015616 0.0160717 0.015193 0.015616 0.0179172 0.0190201 0.015616 0.0160717 0.0190201 0.0203464 0.0203457 0.0190191 0.0160711 0.0156154 0.0190191 0.0179163 0.0156154 0.0151924 0.0160711 0.0156154 0.0123057 0.0124421 0.0156154 0.0151924 0.0124421 0.0125785 0.0179163 0.0172551 0.0151924 0.0149724 0.0172551 0.0171611 0.0149724 0.0152079 0.0151924 0.0149724 0.0125785 0.0129246 0.0149724 0.0152079 0.0129246 0.0132706 0.0197203 0.0207037 0.0186051 0.0193691 0.0207037 0.0215495 0.0193691 0.0197789 0.0186051 0.0193691 0.0169223 0.0172716 0.0193691 0.0197789 0.0172716 0.0176208 0.0215495 0.0223788 0.0197789 0.0200259 0.0223788 0.02333 0.0200259 0.0200729 0.0197789 0.0200259 0.0176208 0.0173247 0.0200259 0.0200729 0.0173247 0.0170287 0.0226856 0.0209471 0.0191294 0.017491 0.0209471 0.0182685 0.017491 0.015111 0.0191294 0.017491 0.0153788 0.0140118 0.017491 0.015111 0.0140118 0.0123223 0.0182685 0.0147483 0.015111 0.0125821 0.0147483 0.0113967 0.0125821 0.00995707 0.015111 0.0125821 0.0123223 0.0104199 0.0125821 0.00995707 0.0104199 0.00851746 0.00896513 0.00847684 0.0108651 0.0103218 0.00847684 0.00798855 0.0103218 0.00962869 0.0108651 0.0103218 0.0127651 0.0121868 0.0103218 0.00962869 0.0121868 0.0114068 0.0127651 0.0121868 0.0148437 0.0141423 0.0121868 0.0114068 0.0141423 0.0132347 0.0148437 0.0141423 0.0169224 0.0160648 0.0141423 0.0132347 0.0160648 0.0150348 0.00798855 0.00728457 0.00962869 0.00888174 0.00728457 0.00658058 0.00888174 0.00813713 0.00962869 0.00888174 0.0114068 0.0105402 0.00888174 0.00813713 0.0105402 0.00969369 0.0114068 0.0105402 0.0132347 0.0122922 0.0105402 0.00969369 0.0122922 0.0114823 0.0132347 0.0122922 0.0150348 0.0140425 0.0122922 0.0114823 0.0140425 0.0132709 0.00719685 0.00670596 0.00975148 0.00910814 0.00670596 0.00621508 0.00910814 0.00850599 0.00975148 0.00910814 0.0123061 0.0121088 0.00910814 0.00850599 0.0121088 0.0115863 0.0115857 0.0121083 0.00850554 0.00910775 0.0121083 0.0123057 0.00910775 0.00975111 0.00850554 0.00910775 0.00621475 0.00670566 0.00910775 0.00975111 0.00670566 0.00719656 0.0132706 0.0140423 0.0114821 0.012292 0.0140423 0.0150347 0.012292 0.0132346 0.0114821 0.012292 0.00969349 0.01054 0.012292 0.0132346 0.01054 0.0114067 0.00969349 0.01054 0.00813698 0.00888164 0.01054 0.0114067 0.00888164 0.00962864 0.00813698 0.00888164 0.00658047 0.00728449 0.00888164 0.00962864 0.00728449 0.00798851 0.0150347 0.0160648 0.0132346 0.0141423 0.0160648 0.0169223 0.0141423 0.0148438 0.0132346 0.0141423 0.0114067 0.0121868 0.0141423 0.0148438 0.0121868 0.0127652 0.0114067 0.0121868 0.00962864 0.0103218 0.0121868 0.0127652 0.0103218 0.0108652 0.00962864 0.0103218 0.00798851 0.00847685 0.0103218 0.0108652 0.00847685 0.00896519 0.00957733 0.0081894 0.0128711 0.0107382 0.0081894 0.00660643 0.0107382 0.00850708 0.0128711 0.0107382 0.0166865 0.01348 0.0107382 0.00850708 0.01348 0.0104124 0.0104124 0.0134796 0.00850685 0.0107377 0.0134796 0.0166856 0.0107377 0.0128702 0.00850685 0.0107377 0.00660614 0.00818894 0.0107377 0.0128702 0.00818894 0.00957671 0.00850974 0.00958432 0.0104156 0.0115968 0.00958432 0.0106589 0.0115968 0.0126937 0.0104156 0.0115968 0.0123214 0.0140098 0.0115968 0.0126937 0.0140098 0.0153765 0.00535011 0.00837376 0.0055413 0.00886272 0.00837376 0.0113974 0.00886272 0.0124608 0.0055413 0.00886272 0.00573249 0.008974 0.00886272 0.0124608 0.008974 0.012652 0.0106589 0.0114419 0.0126937 0.0137239 0.0114419 0.0122249 0.0137239 0.0146262 0.0126937 0.0137239 0.0153765 0.0163801 0.0137239 0.0146262 0.0163801 0.0170276 0.0170287 0.016382 0.0146271 0.013725 0.016382 0.0153788 0.013725 0.012695 0.0146271 0.013725 0.0122255 0.0114426 0.013725 0.012695 0.0114426 0.0106598 0.0126514 0.00897367 0.0124601 0.00886232 0.00897367 0.00573231 0.00886232 0.0055411 0.0124601 0.00886232 0.0113967 0.00837329 0.00886232 0.0055411 0.00837329 0.00534989 0.0153788 0.0140118 0.012695 0.0115982 0.0140118 0.0123223 0.0115982 0.0104164 0.012695 0.0115982 0.0106598 0.00958517 0.0115982 0.0104164 0.00958517 0.0085105 0.0031682 0.00284554 0.00469164 0.00413268 0.00284554 0.00252288 0.00413268 0.00365233 0.00469164 0.00413268 0.00621508 0.00570922 0.00413268 0.00365233 0.00570922 0.00512133 0.00252288 0.0021755 0.00365233 0.00318804 0.0021755 0.00182811 0.00318804 0.00274078 0.00365233 0.00318804 0.00512133 0.00446291 0.00318804 0.00274078 0.00446291 0.00365345 0.00621508 0.00570922 0.00850599 0.00783014 0.00570922 0.00512133 0.00783014 0.00703979 0.00850599 0.00783014 0.0115863 0.0107179 0.00783014 0.00703979 0.0107179 0.00957733 0.00512133 0.00446291 0.00703979 0.00612068 0.00446291 0.00365345 0.00612068 0.00512994 0.00703979 0.00612068 0.00957733 0.0081894 0.00612068 0.00512994 0.0081894 0.00660643 0.00660643 0.00497258 0.00850708 0.00628687 0.00497258 0.00333874 0.00628687 0.004096 0.00850708 0.00628687 0.0104124 0.00752653 0.00628687 0.004096 0.00752653 0.00485326 0.0104124 0.00752653 0.0119262 0.00848659 0.00752653 0.00485326 0.00848659 0.00529278 0.0119262 0.00848659 0.0126514 0.00897367 0.00848659 0.00529278 0.00897367 0.00573231 0.00573249 0.008974 0.00529289 0.00848679 0.008974 0.012652 0.00848679 0.0119265 0.00529289 0.00848679 0.0048533 0.00752657 0.00848679 0.0119265 0.00752657 0.0104124 0.0048533 0.00752657 0.00409598 0.00628679 0.00752657 0.0104124 0.00628679 0.00850685 0.00409598 0.00628679 0.00333866 0.0049724 0.00628679 0.00850685 0.0049724 0.00660614 0.00660614 0.00818894 0.00512969 0.00612031 0.00818894 0.00957671 0.00612031 0.00703933 0.00512969 0.00612031 0.00365323 0.00446262 0.00612031 0.00703933 0.00446262 0.00512099 0.00957671 0.0107172 0.00703933 0.00782965 0.0107172 0.0115857 0.00782965 0.00850554 0.00703933 0.00782965 0.00512099 0.00570887 0.00782965 0.00850554 0.00570887 0.00621475 0.00365323 0.00446262 0.0027406 0.00318782 0.00446262 0.00512099 0.00318782 0.00365209 0.0027406 0.00318782 0.00182798 0.00217534 0.00318782 0.00365209 0.00217534 0.0025227 0.00512099 0.00570887 0.00365209 0.00413243 0.00570887 0.00621475 0.00413243 0.00469138 0.00365209 0.00413243 0.0025227 0.00284536 0.00413243 0.00469138 0.00284536 0.00316802 0.0209595 0.0218125 0.0218612 0.0229639 0.0218125 0.0226655 0.0229639 0.0236813 0.0218612 0.0229639 0.0227629 0.0236068 0.0229639 0.0236813 0.0236068 0.0244507 0.0226655 0.0230585 0.0236813 0.0242328 0.0230585 0.0234515 0.0242328 0.0244514 0.0236813 0.0242328 0.0244507 0.0248197 0.0242328 0.0244514 0.0248197 0.0251886 0.0234515 0.0233971 0.0244514 0.0245022 0.0233971 0.0233427 0.0245022 0.0241659 0.0244514 0.0245022 0.0251886 0.0250888 0.0245022 0.0241659 0.0250888 0.0249891 0.0187944 0.0183907 0.0190705 0.0187598 0.0183907 0.017987 0.0187598 0.018498 0.0190705 0.0187598 0.0193467 0.0190638 0.0187598 0.018498 0.0190638 0.0188701 0.0201621 0.0197544 0.0200174 0.0196949 0.0197544 0.0193467 0.0196949 0.0194243 0.0200174 0.0196949 0.0198728 0.0195453 0.0196949 0.0194243 0.0195453 0.0193422 0.0193467 0.0190638 0.0194243 0.019234 0.0190638 0.0188701 0.019234 0.0191089 0.0194243 0.019234 0.0193422 0.0192282 0.019234 0.0191089 0.0192282 0.0191895 0.017987 0.0177135 0.018498 0.0182691 0.0177135 0.0174399 0.0182691 0.0180767 0.018498 0.0182691 0.0188701 0.0187526 0.0182691 0.0180767 0.0187526 0.0187136 0.0188701 0.0187526 0.0191089 0.0190643 0.0187526 0.0187136 0.0190643 0.0191091 0.0191089 0.0190643 0.0191895 0.0192281 0.0190643 0.0191091 0.0192281 0.019342 0.0187136 0.0187591 0.0191091 0.0191988 0.0187591 0.0188046 0.0191988 0.0193384 0.0191091 0.0191988 0.019342 0.0195449 0.0191988 0.0193384 0.0195449 0.0198722 0.0198728 0.0195453 0.0193388 0.0191991 0.0195453 0.0193422 0.0191991 0.0191093 0.0193388 0.0191991 0.0188049 0.0187593 0.0191991 0.0191093 0.0187593 0.0187137 0.0193422 0.0192282 0.0191093 0.0190643 0.0192282 0.0191895 0.0190643 0.0191089 0.0191093 0.0190643 0.0187137 0.0187526 0.0190643 0.0191089 0.0187526 0.0188701 0.0187137 0.0187526 0.0180768 0.0182691 0.0187526 0.0188701 0.0182691 0.0184979 0.0180768 0.0182691 0.0174399 0.0177134 0.0182691 0.0184979 0.0177134 0.0179869 0.0191895 0.0192281 0.0191089 0.0192339 0.0192281 0.019342 0.0192339 0.0194241 0.0191089 0.0192339 0.0188701 0.0190636 0.0192339 0.0194241 0.0190636 0.0193464 0.019342 0.0195449 0.0194241 0.0196945 0.0195449 0.0198722 0.0196945 0.0200169 0.0194241 0.0196945 0.0193464 0.0197539 0.0196945 0.0200169 0.0197539 0.0201615 0.0188701 0.0190636 0.0184979 0.0187596 0.0190636 0.0193464 0.0187596 0.0190703 0.0184979 0.0187596 0.0179869 0.0183905 0.0187596 0.0190703 0.0183905 0.0187942 0.024946 0.0251193 0.0249636 0.0253291 0.0251193 0.0252927 0.0253291 0.0252519 0.0249636 0.0253291 0.0249812 0.0250961 0.0253291 0.0252519 0.0250961 0.025211 0.025211 0.0248403 0.0243422 0.0241825 0.0248403 0.0244696 0.0241825 0.0235776 0.0243422 0.0241825 0.0234734 0.0230795 0.0241825 0.0235776 0.0230795 0.0226856 
SCALARS y_displacement double 1
LOOKUP_TABLE default