# vtk DataFile Version 3.0
#This file was generated by the deal.II library on 2020/5/23 at 14:52:57
ASCII
DATASET UNSTRUCTURED_GRID

POINTS 64 double
-1 -1 0
-0.5 -1 0
-1 -0.5 0
-0.5 -0.5 0
-0.5 -1 0
0 -1 0
-0.5 -0.5 0
0 -0.5 0
-1 -0.5 0
-0.5 -0.5 0
-1 0 0
-0.5 0 0
-0.5 -0.5 0
0 -0.5 0
-0.5 0 0
0 0 0
0 -1 0
0.5 -1 0
0 -0.5 0
0.5 -0.5 0
0.5 -1 0
1 -1 0
0.5 -0.5 0
1 -0.5 0
0 -0.5 0
0.5 -0.5 0
0 0 0
0.5 0 0
0.5 -0.5 0
1 -0.5 0
0.5 0 0
1 0 0
-1 0 0
-0.5 0 0
-1 0.5 0
-0.5 0.5 0
-0.5 0 0
0 0 0
-0.5 0.5 0
0 0.5 0
-1 0.5 0
-0.5 0.5 0
-1 1 0
-0.5 1 0
-0.5 0.5 0
0 0.5 0
-0.5 1 0
0 1 0
0 0 0
0.5 0 0
0 0.5 0
0.5 0.5 0
0.5 0 0
1 0 0
0.5 0.5 0
1 0.5 0
0 0.5 0
0.5 0.5 0
0 1 0
0.5 1 0
0.5 0.5 0
1 0.5 0
0.5 1 0
1 1 0

CELLS 16 80
4	0	1	3	2
4	4	5	7	6
4	8	9	11	10
4	12	13	15	14
4	16	17	19	18
4	20	21	23	22
4	24	25	27	26
4	28	29	31	30
4	32	33	35	34
4	36	37	39	38
4	40	41	43	42
4	44	45	47	46
4	48	49	51	50
4	52	53	55	54
4	56	57	59	58
4	60	61	63	62

CELL_TYPES 16
 9 9 9 9 9 9 9 9 9 9 9 9 9 9 9 9
POINT_DATA 64
SCALARS x_displacement double 1
LOOKUP_TABLE default
0 0 0 0.0158134 0 0 0.0158134 0.0168406 0 0.0158134 0 0.0446849 0.0158134 0.0168406 0.0446849 0.0408088 0 0 0.0168406 0.00714111 0 0 0.00714111 0 0.0168406 0.00714111 0.0408088 0.0446849 0.00714111 0 0.0446849 0 0 0.0446849 0 0.00714111 0.0446849 0.0408088 0.00714111 0.0168406 0 0.00714111 0 0 0.00714111 0.0168406 0 0 0.0408088 0.0446849 0.0168406 0.0158134 0.0446849 0 0.0158134 0 0.0168406 0.0158134 0 0 0.0158134 0 0 0 
SCALARS y_displacement double 1
LOOKUP_TABLE default
0 0 0 0.0124464 0 0 0.0124464 0.0201421 0 0.0124464 0 0.0114389 0.0124464 0.0201421 0.0114389 0.046252 0 0 0.0201421 0.00479479 0 0 0.00479479 0 0.0201421 0.00479479 0.046252 0.0114389 0.00479479 0 0.0114389 0 0 0.0114389 0 0.00479479 0.0114389 0.046252 0.00479479 0.0201421 0 0.00479479 0 0 0.00479479 0.0201421 0 0 0.046252 0.0114389 0.0201421 0.0124464 0.0114389 0 0.0124464 0 0.0201421 0.0124464 0 0 0.0124464 0 0 0 
