# vtk DataFile Version 3.0
#This file was generated by the deal.II library on 2020/5/23 at 14:52:57
ASCII
DATASET UNSTRUCTURED_GRID

POINTS 280 double
-1 -1 0
-0.5 -1 0
-1 -0.5 0
-0.5 -0.5 0
-0.5 -1 0
0 -1 0
-0.5 -0.5 0
0 -0.5 0
0 -1 0
0.5 -1 0
0 -0.5 0
0.5 -0.5 0
0.5 -1 0
1 -1 0
0.5 -0.5 0
1 -0.5 0
-1 0.5 0
-0.5 0.5 0
-1 1 0
-0.5 1 0
-0.5 0.5 0
0 0.5 0
-0.5 1 0
0 1 0
0 0.5 0
0.5 0.5 0
0 1 0
0.5 1 0
0.5 0.5 0
1 0.5 0
0.5 1 0
1 1 0
-1 -0.5 0
-0.75 -0.5 0
-1 -0.25 0
-0.75 -0.25 0
-0.75 -0.5 0
-0.5 -0.5 0
-0.75 -0.25 0
-0.5 -0.25 0
-1 -0.25 0
-0.75 -0.25 0
-1 0 0
-0.75 0 0
-0.5 -0.5 0
-0.25 -0.5 0
-0.5 -0.25 0
-0.25 -0.25 0
-0.25 -0.5 0
0 -0.5 0
-0.25 -0.25 0
0 -0.25 0
0 -0.5 0
0.25 -0.5 0
0 -0.25 0
0.25 -0.25 0
0.25 -0.5 0
0.5 -0.5 0
0.25 -0.25 0
0.5 -0.25 0
-0.5 0.25 0
-0.25 0.25 0
-0.5 0.5 0
-0.25 0.5 0
-0.25 0.25 0
0 0.25 0
-0.25 0.5 0
0 0.5 0
0 0.25 0
0.25 0.25 0
0 0.5 0
0.25 0.5 0
0.25 0.25 0
0.5 0.25 0
0.25 0.5 0
0.5 0.5 0
0.75 0 0
1 0 0
0.75 0.25 0
1 0.25 0
0.5 0.25 0
0.75 0.25 0
0.5 0.5 0
0.75 0.5 0
0.75 0.25 0
1 0.25 0
0.75 0.5 0
1 0.5 0
0.5 -0.5 0
0.75 -0.5 0
0.5 -0.25 0
0.75 -0.25 0
0.75 -0.5 0
1 -0.5 0
0.75 -0.25 0
1 -0.25 0
0.5 -0.25 0
0.75 -0.25 0
0.5 0 0
0.75 0 0
0.75 -0.25 0
1 -0.25 0
0.75 0 0
1 0 0
-1 0 0
-0.75 0 0
-1 0.25 0
-0.75 0.25 0
-0.75 0 0
-0.5 0 0
-0.75 0.25 0
-0.5 0.25 0
-1 0.25 0
-0.75 0.25 0
-1 0.5 0
-0.75 0.5 0
-0.75 0.25 0
-0.5 0.25 0
-0.75 0.5 0
-0.5 0.5 0
-0.75 -0.25 0
-0.625 -0.25 0
-0.75 -0.125 0
-0.625 -0.125 0
-0.625 -0.25 0
-0.5 -0.25 0
-0.625 -0.125 0
-0.5 -0.125 0
-0.75 -0.125 0
-0.625 -0.125 0
-0.75 0 0
-0.625 0 0
-0.625 -0.125 0
-0.5 -0.125 0
-0.625 0 0
-0.5 0 0
-0.5 -0.25 0
-0.375 -0.25 0
-0.5 -0.125 0
-0.375 -0.125 0
-0.375 -0.25 0
-0.25 -0.25 0
-0.375 -0.125 0
-0.25 -0.125 0
-0.5 -0.125 0
-0.375 -0.125 0
-0.5 0 0
-0.375 0 0
-0.375 -0.125 0
-0.25 -0.125 0
-0.375 0 0
-0.25 0 0
-0.25 -0.25 0
-0.125 -0.25 0
-0.25 -0.125 0
-0.125 -0.125 0
-0.125 -0.25 0
0 -0.25 0
-0.125 -0.125 0
0 -0.125 0
-0.25 -0.125 0
-0.125 -0.125 0
-0.25 0 0
-0.125 0 0
-0.125 -0.125 0
0 -0.125 0
-0.125 0 0
0 0 0
0 -0.25 0
0.125 -0.25 0
0 -0.125 0
0.125 -0.125 0
0.125 -0.25 0
0.25 -0.25 0
0.125 -0.125 0
0.25 -0.125 0
0 -0.125 0
0.125 -0.125 0
0 0 0
0.125 0 0
0.125 -0.125 0
0.25 -0.125 0
0.125 0 0
0.25 0 0
0.25 -0.25 0
0.375 -0.25 0
0.25 -0.125 0
0.375 -0.125 0
0.375 -0.25 0
0.5 -0.25 0
0.375 -0.125 0
0.5 -0.125 0
0.25 -0.125 0
0.375 -0.125 0
0.25 0 0
0.375 0 0
0.375 -0.125 0
0.5 -0.125 0
0.375 0 0
0.5 0 0
-0.5 0 0
-0.375 0 0
-0.5 0.125 0
-0.375 0.125 0
-0.375 0 0
-0.25 0 0
-0.375 0.125 0
-0.25 0.125 0
-0.5 0.125 0
-0.375 0.125 0
-0.5 0.25 0
-0.375 0.25 0
-0.375 0.125 0
-0.25 0.125 0
-0.375 0.25 0
-0.25 0.25 0
-0.25 0 0
-0.125 0 0
-0.25 0.125 0
-0.125 0.125 0
-0.125 0 0
0 0 0
-0.125 0.125 0
0 0.125 0
-0.25 0.125 0
-0.125 0.125 0
-0.25 0.25 0
-0.125 0.25 0
-0.125 0.125 0
0 0.125 0
-0.125 0.25 0
0 0.25 0
0 0 0
0.125 0 0
0 0.125 0
0.125 0.125 0
0.125 0 0
0.25 0 0
0.125 0.125 0
0.25 0.125 0
0 0.125 0
0.125 0.125 0
0 0.25 0
0.125 0.25 0
0.125 0.125 0
0.25 0.125 0
0.125 0.25 0
0.25 0.25 0
0.25 0 0
0.375 0 0
0.25 0.125 0
0.375 0.125 0
0.375 0 0
0.5 0 0
0.375 0.125 0
0.5 0.125 0
0.25 0.125 0
0.375 0.125 0
0.25 0.25 0
0.375 0.25 0
0.375 0.125 0
0.5 0.125 0
0.375 0.25 0
0.5 0.25 0
0.5 0 0
0.625 0 0
0.5 0.125 0
0.625 0.125 0
0.625 0 0
0.75 0 0
0.625 0.125 0
0.75 0.125 0
0.5 0.125 0
0.625 0.125 0
0.5 0.25 0
0.625 0.25 0
0.625 0.125 0
0.75 0.125 0
0.625 0.25 0
0.75 0.25 0

CELLS 70 350
4	0	1	3	2
4	4	5	7	6
4	8	9	11	10
4	12	13	15	14
4	16	17	19	18
4	20	21	23	22
4	24	25	27	26
4	28	29	31	30
4	32	33	35	34
4	36	37	39	38
4	40	41	43	42
4	44	45	47	46
4	48	49	51	50
4	52	53	55	54
4	56	57	59	58
4	60	61	63	62
4	64	65	67	66
4	68	69	71	70
4	72	73	75	74
4	76	77	79	78
4	80	81	83	82
4	84	85	87	86
4	88	89	91	90
4	92	93	95	94
4	96	97	99	98
4	100	101	103	102
4	104	105	107	106
4	108	109	111	110
4	112	113	115	114
4	116	117	119	118
4	120	121	123	122
4	124	125	127	126
4	128	129	131	130
4	132	133	135	134
4	136	137	139	138
4	140	141	143	142
4	144	145	147	146
4	148	149	151	150
4	152	153	155	154
4	156	157	159	158
4	160	161	163	162
4	164	165	167	166
4	168	169	171	170
4	172	173	175	174
4	176	177	179	178
4	180	181	183	182
4	184	185	187	186
4	188	189	191	190
4	192	193	195	194
4	196	197	199	198
4	200	201	203	202
4	204	205	207	206
4	208	209	211	210
4	212	213	215	214
4	216	217	219	218
4	220	221	223	222
4	224	225	227	226
4	228	229	231	230
4	232	233	235	234
4	236	237	239	238
4	240	241	243	242
4	244	245	247	246
4	248	249	251	250
4	252	253	255	254
4	256	257	259	258
4	260	261	263	262
4	264	265	267	266
4	268	269	271	270
4	272	273	275	274
4	276	277	279	278

CELL_TYPES 70
 9 9 9 9 9 9 9 9 9 9 9 9 9 9 9 9 9 9 9 9 9 9 9 9 9 9 9 9 9 9 9 9 9 9 9 9 9 9 9 9 9 9 9 9 9 9 9 9 9 9 9 9 9 9 9 9 9 9 9 9 9 9 9 9 9 9 9 9 9 9
POINT_DATA 280
SCALARS x_displacement double 1
LOOKUP_TABLE default
0 0 0 0.00743745 0 0 0.00743745 0.00719541 0 0 0.00719541 0.00240122 0 0 0.00240122 0 0 0.00240122 0 0 0.00240122 0.00719541 0 0 0.00719541 0.00743745 0 0 0.00743745 0 0 0 0 0.00371872 0 0.00831318 0.00371872 0.00743745 0.00831318 0.0141297 0 0.00831318 0 0.0111571 0.00743745 0.00731643 0.0141297 0.016633 0.00731643 0.00719541 0.016633 0.0139393 0.00719541 0.00479831 0.0139393 0.0110198 0.00479831 0.00240122 0.0110198 0.00937515 0.00937515 0.0110198 0.00240122 0.00479831 0.0110198 0.0139393 0.00479831 0.00719541 0.0139393 0.016633 0.00719541 0.00731643 0.016633 0.0141297 0.00731643 0.00743745 0.0111571 0 0.00831318 0 0.0141297 0.00831318 0.00743745 0.00371872 0.00831318 0 0.00371872 0 0.00240122 0.00120061 0.00937515 0.00514598 0.00120061 0 0.00514598 0 0.00937515 0.00514598 0.0230633 0.0111571 0.00514598 0 0.0111571 0 0 0.0111571 0 0.00514598 0.0111571 0.0230633 0.00514598 0.00937515 0 0.00514598 0 0.00120061 0.00514598 0.00937515 0.00120061 0.00240122 0.00831318 0.0112214 0.00973513 0.0170159 0.0112214 0.0141297 0.0170159 0.0210354 0.00973513 0.0170159 0.0111571 0.0171102 0.0170159 0.0210354 0.0171102 0.0230633 0.0141297 0.0153814 0.0210354 0.0219644 0.0153814 0.016633 0.0219644 0.0201774 0.0210354 0.0219644 0.0230633 0.0231728 0.0219644 0.0201774 0.0231728 0.0202922 0.016633 0.0152862 0.0201774 0.0184006 0.0152862 0.0139393 0.0184006 0.016689 0.0201774 0.0184006 0.0202922 0.018358 0.0184006 0.016689 0.018358 0.0177837 0.0139393 0.0124796 0.016689 0.0157196 0.0124796 0.0110198 0.0157196 0.0161796 0.016689 0.0157196 0.0177837 0.018358 0.0157196 0.0161796 0.018358 0.0202922 0.0110198 0.0101975 0.0161796 0.0179232 0.0101975 0.00937515 0.0179232 0.0162192 0.0161796 0.0179232 0.0202922 0.0231728 0.0179232 0.0162192 0.0231728 0.0230633 0.0230633 0.0231728 0.0162192 0.0179232 0.0231728 0.0202922 0.0179232 0.0161796 0.0162192 0.0179232 0.00937515 0.0101975 0.0179232 0.0161796 0.0101975 0.0110198 0.0202922 0.018358 0.0161796 0.0157196 0.018358 0.0177837 0.0157196 0.016689 0.0161796 0.0157196 0.0110198 0.0124796 0.0157196 0.016689 0.0124796 0.0139393 0.0177837 0.018358 0.016689 0.0184006 0.018358 0.0202922 0.0184006 0.0201774 0.016689 0.0184006 0.0139393 0.0152862 0.0184006 0.0201774 0.0152862 0.016633 0.0202922 0.0231728 0.0201774 0.0219644 0.0231728 0.0230633 0.0219644 0.0210354 0.0201774 0.0219644 0.016633 0.0153814 0.0219644 0.0210354 0.0153814 0.0141297 0.0230633 0.0171102 0.0210354 0.0170159 0.0171102 0.0111571 0.0170159 0.00973513 0.0210354 0.0170159 0.0141297 0.0112214 0.0170159 0.00973513 0.0112214 0.00831318 
SCALARS y_displacement double 1
LOOKUP_TABLE default
0 0 0 0.0061903 0 0 0.0061903 0.00998928 0 0 0.00998928 0.00246036 0 0 0.00246036 0 0 0.00246036 0 0 0.00246036 0.00998928 0 0 0.00998928 0.0061903 0 0 0.0061903 0 0 0 0 0.00309515 0 0.00436914 0.00309515 0.0061903 0.00436914 0.00674444 0 0.00436914 0 0.00141977 0.0061903 0.00808979 0.00674444 0.0115079 0.00808979 0.00998928 0.0115079 0.018372 0.00998928 0.00622482 0.018372 0.0125984 0.00622482 0.00246036 0.0125984 0.00388558 0.00388558 0.0125984 0.00246036 0.00622482 0.0125984 0.018372 0.00622482 0.00998928 0.018372 0.0115079 0.00998928 0.00808979 0.0115079 0.00674444 0.00808979 0.0061903 0.00141977 0 0.00436914 0 0.00674444 0.00436914 0.0061903 0.00309515 0.00436914 0 0.00309515 0 0.00246036 0.00123018 0.00388558 -0.000302985 0.00123018 0 -0.000302985 0 0.00388558 -0.000302985 0.00593028 0.00141977 -0.000302985 0 0.00141977 0 0 0.00141977 0 -0.000302985 0.00141977 0.00593028 -0.000302985 0.00388558 0 -0.000302985 0 0.00123018 -0.000302985 0.00388558 0.00123018 0.00246036 0.00436914 0.00555679 0.00289446 0.0051625 0.00555679 0.00674444 0.0051625 0.00672651 0.00289446 0.0051625 0.00141977 0.00367503 0.0051625 0.00672651 0.00367503 0.00593028 0.00674444 0.00912618 0.00672651 0.00886525 0.00912618 0.0115079 0.00886525 0.0129802 0.00672651 0.00886525 0.00593028 0.00935418 0.00886525 0.0129802 0.00935418 0.0143477 0.0115079 0.01494 0.0129802 0.0200556 0.01494 0.018372 0.0200556 0.0234795 0.0129802 0.0200556 0.0143477 0.0225446 0.0200556 0.0234795 0.0225446 0.0254955 0.018372 0.0154852 0.0234795 0.0207705 0.0154852 0.0125984 0.0207705 0.0143142 0.0234795 0.0207705 0.0254955 0.0225446 0.0207705 0.0143142 0.0225446 0.0143477 0.0125984 0.00824201 0.0143142 0.00930665 0.00824201 0.00388558 0.00930665 0.00490793 0.0143142 0.00930665 0.0143477 0.00935418 0.00930665 0.00490793 0.00935418 0.00593028 0.00593028 0.00935418 0.00490793 0.00930665 0.00935418 0.0143477 0.00930665 0.0143142 0.00490793 0.00930665 0.00388558 0.00824201 0.00930665 0.0143142 0.00824201 0.0125984 0.0143477 0.0225446 0.0143142 0.0207705 0.0225446 0.0254955 0.0207705 0.0234795 0.0143142 0.0207705 0.0125984 0.0154852 0.0207705 0.0234795 0.0154852 0.018372 0.0254955 0.0225446 0.0234795 0.0200556 0.0225446 0.0143477 0.0200556 0.0129802 0.0234795 0.0200556 0.018372 0.01494 0.0200556 0.0129802 0.01494 0.0115079 0.0143477 0.00935418 0.0129802 0.00886525 0.00935418 0.00593028 0.00886525 0.00672651 0.0129802 0.00886525 0.0115079 0.00912618 0.00886525 0.00672651 0.00912618 0.00674444 0.00593028 0.00367503 0.00672651 0.0051625 0.00367503 0.00141977 0.0051625 0.00289446 0.00672651 0.0051625 0.00674444 0.00555679 0.0051625 0.00289446 0.00555679 0.00436914 
