# vtk DataFile Version 3.0
#This file was generated by the deal.II library on 2020/5/23 at 14:52:58
ASCII
DATASET UNSTRUCTURED_GRID

POINTS 3748 double
-0.5 -1 0
-0.25 -1 0
-0.5 -0.75 0
-0.25 -0.75 0
0.25 0.75 0
0.5 0.75 0
0.25 1 0
0.5 1 0
-1 -1 0
-0.75 -1 0
-1 -0.75 0
-0.75 -0.75 0
-0.75 -1 0
-0.5 -1 0
-0.75 -0.75 0
-0.5 -0.75 0
0.75 -1 0
1 -1 0
0.75 -0.75 0
1 -0.75 0
-1 0.75 0
-0.75 0.75 0
-1 1 0
-0.75 1 0
0.5 0.75 0
0.75 0.75 0
0.5 1 0
0.75 1 0
0.75 0.75 0
1 0.75 0
0.75 1 0
1 1 0
-1 -0.25 0
-0.875 -0.25 0
-1 -0.125 0
-0.875 -0.125 0
-1 -0.125 0
-0.875 -0.125 0
-1 0 0
-0.875 0 0
0.875 0 0
1 0 0
0.875 0.125 0
1 0.125 0
0.875 0.125 0
1 0.125 0
0.875 0.25 0
1 0.25 0
0.875 -0.25 0
1 -0.25 0
0.875 -0.125 0
1 -0.125 0
0.875 -0.125 0
1 -0.125 0
0.875 0 0
1 0 0
-1 0 0
-0.875 0 0
-1 0.125 0
-0.875 0.125 0
-1 0.125 0
-0.875 0.125 0
-1 0.25 0
-0.875 0.25 0
0.25 -0.75 0
0.375 -0.75 0
0.25 -0.625 0
0.375 -0.625 0
0.375 -0.75 0
0.5 -0.75 0
0.375 -0.625 0
0.5 -0.625 0
0.25 -0.625 0
0.375 -0.625 0
0.25 -0.5 0
0.375 -0.5 0
0.375 -0.625 0
0.5 -0.625 0
0.375 -0.5 0
0.5 -0.5 0
-0.5 0.5 0
-0.375 0.5 0
-0.5 0.625 0
-0.375 0.625 0
-0.375 0.5 0
-0.25 0.5 0
-0.375 0.625 0
-0.25 0.625 0
-0.5 0.625 0
-0.375 0.625 0
-0.5 0.75 0
-0.375 0.75 0
-0.375 0.625 0
-0.25 0.625 0
-0.375 0.75 0
-0.25 0.75 0
-1 -0.5 0
-0.875 -0.5 0
-1 -0.375 0
-0.875 -0.375 0
-0.875 -0.5 0
-0.75 -0.5 0
-0.875 -0.375 0
-0.75 -0.375 0
-1 -0.375 0
-0.875 -0.375 0
-1 -0.25 0
-0.875 -0.25 0
0.875 0.25 0
1 0.25 0
0.875 0.375 0
1 0.375 0
0.75 0.375 0
0.875 0.375 0
0.75 0.5 0
0.875 0.5 0
0.875 0.375 0
1 0.375 0
0.875 0.5 0
1 0.5 0
0.875 -0.5 0
1 -0.5 0
0.875 -0.375 0
1 -0.375 0
-1 0.375 0
-0.875 0.375 0
-1 0.5 0
-0.875 0.5 0
-0.5 -0.75 0
-0.375 -0.75 0
-0.5 -0.625 0
-0.375 -0.625 0
-0.375 -0.75 0
-0.25 -0.75 0
-0.375 -0.625 0
-0.25 -0.625 0
-0.5 -0.625 0
-0.375 -0.625 0
-0.5 -0.5 0
-0.375 -0.5 0
-0.375 -0.625 0
-0.25 -0.625 0
-0.375 -0.5 0
-0.25 -0.5 0
-0.25 -0.75 0
-0.125 -0.75 0
-0.25 -0.625 0
-0.125 -0.625 0
-0.125 -0.75 0
0 -0.75 0
-0.125 -0.625 0
0 -0.625 0
-0.25 -0.625 0
-0.125 -0.625 0
-0.25 -0.5 0
-0.125 -0.5 0
0 -1 0
0.125 -1 0
0 -0.875 0
0.125 -0.875 0
0.125 -1 0
0.25 -1 0
0.125 -0.875 0
0.25 -0.875 0
0 -0.875 0
0.125 -0.875 0
0 -0.75 0
0.125 -0.75 0
0.125 -0.875 0
0.25 -0.875 0
0.125 -0.75 0
0.25 -0.75 0
0 -0.75 0
0.125 -0.75 0
0 -0.625 0
0.125 -0.625 0
0.125 -0.75 0
0.25 -0.75 0
0.125 -0.625 0
0.25 -0.625 0
0.125 -0.625 0
0.25 -0.625 0
0.125 -0.5 0
0.25 -0.5 0
-0.25 0.5 0
-0.125 0.5 0
-0.25 0.625 0
-0.125 0.625 0
-0.25 0.625 0
-0.125 0.625 0
-0.25 0.75 0
-0.125 0.75 0
-0.125 0.625 0
0 0.625 0
-0.125 0.75 0
0 0.75 0
-0.25 0.75 0
-0.125 0.75 0
-0.25 0.875 0
-0.125 0.875 0
-0.125 0.75 0
0 0.75 0
-0.125 0.875 0
0 0.875 0
-0.25 0.875 0
-0.125 0.875 0
-0.25 1 0
-0.125 1 0
-0.125 0.875 0
0 0.875 0
-0.125 1 0
0 1 0
0.125 0.5 0
0.25 0.5 0
0.125 0.625 0
0.25 0.625 0
0 0.625 0
0.125 0.625 0
0 0.75 0
0.125 0.75 0
0.125 0.625 0
0.25 0.625 0
0.125 0.75 0
0.25 0.75 0
0.25 0.5 0
0.375 0.5 0
0.25 0.625 0
0.375 0.625 0
0.375 0.5 0
0.5 0.5 0
0.375 0.625 0
0.5 0.625 0
0.25 0.625 0
0.375 0.625 0
0.25 0.75 0
0.375 0.75 0
0.375 0.625 0
0.5 0.625 0
0.375 0.75 0
0.5 0.75 0
-1 -0.75 0
-0.875 -0.75 0
-1 -0.625 0
-0.875 -0.625 0
-0.875 -0.75 0
-0.75 -0.75 0
-0.875 -0.625 0
-0.75 -0.625 0
-1 -0.625 0
-0.875 -0.625 0
-1 -0.5 0
-0.875 -0.5 0
-0.875 -0.625 0
-0.75 -0.625 0
-0.875 -0.5 0
-0.75 -0.5 0
-0.75 -0.75 0
-0.625 -0.75 0
-0.75 -0.625 0
-0.625 -0.625 0
-0.625 -0.75 0
-0.5 -0.75 0
-0.625 -0.625 0
-0.5 -0.625 0
-0.75 -0.625 0
-0.625 -0.625 0
-0.75 -0.5 0
-0.625 -0.5 0
-0.625 -0.625 0
-0.5 -0.625 0
-0.625 -0.5 0
-0.5 -0.5 0
0.5 -0.75 0
0.625 -0.75 0
0.5 -0.625 0
0.625 -0.625 0
0.625 -0.75 0
0.75 -0.75 0
0.625 -0.625 0
0.75 -0.625 0
0.5 -0.625 0
0.625 -0.625 0
0.5 -0.5 0
0.625 -0.5 0
0.625 -0.625 0
0.75 -0.625 0
0.625 -0.5 0
0.75 -0.5 0
0.75 -0.75 0
0.875 -0.75 0
0.75 -0.625 0
0.875 -0.625 0
0.875 -0.75 0
1 -0.75 0
0.875 -0.625 0
1 -0.625 0
0.875 -0.625 0
1 -0.625 0
0.875 -0.5 0
1 -0.5 0
-1 0.5 0
-0.875 0.5 0
-1 0.625 0
-0.875 0.625 0
-1 0.625 0
-0.875 0.625 0
-1 0.75 0
-0.875 0.75 0
-0.875 0.625 0
-0.75 0.625 0
-0.875 0.75 0
-0.75 0.75 0
-0.75 0.5 0
-0.625 0.5 0
-0.75 0.625 0
-0.625 0.625 0
-0.625 0.5 0
-0.5 0.5 0
-0.625 0.625 0
-0.5 0.625 0
-0.75 0.625 0
-0.625 0.625 0
-0.75 0.75 0
-0.625 0.75 0
-0.625 0.625 0
-0.5 0.625 0
-0.625 0.75 0
-0.5 0.75 0
0.5 0.5 0
0.625 0.5 0
0.5 0.625 0
0.625 0.625 0
0.625 0.5 0
0.75 0.5 0
0.625 0.625 0
0.75 0.625 0
0.5 0.625 0
0.625 0.625 0
0.5 0.75 0
0.625 0.75 0
0.625 0.625 0
0.75 0.625 0
0.625 0.75 0
0.75 0.75 0
0.75 0.5 0
0.875 0.5 0
0.75 0.625 0
0.875 0.625 0
0.875 0.5 0
1 0.5 0
0.875 0.625 0
1 0.625 0
0.75 0.625 0
0.875 0.625 0
0.75 0.75 0
0.875 0.75 0
0.875 0.625 0
1 0.625 0
0.875 0.75 0
1 0.75 0
-0.25 -1 0
-0.125 -1 0
-0.25 -0.875 0
-0.125 -0.875 0
-0.125 -1 0
0 -1 0
-0.125 -0.875 0
0 -0.875 0
-0.25 -0.875 0
-0.125 -0.875 0
-0.25 -0.75 0
-0.125 -0.75 0
-0.125 -0.875 0
0 -0.875 0
-0.125 -0.75 0
0 -0.75 0
0.25 -1 0
0.375 -1 0
0.25 -0.875 0
0.375 -0.875 0
0.375 -1 0
0.5 -1 0
0.375 -0.875 0
0.5 -0.875 0
0.25 -0.875 0
0.375 -0.875 0
0.25 -0.75 0
0.375 -0.75 0
0.375 -0.875 0
0.5 -0.875 0
0.375 -0.75 0
0.5 -0.75 0
-0.5 0.75 0
-0.375 0.75 0
-0.5 0.875 0
-0.375 0.875 0
-0.375 0.75 0
-0.25 0.75 0
-0.375 0.875 0
-0.25 0.875 0
-0.5 0.875 0
-0.375 0.875 0
-0.5 1 0
-0.375 1 0
-0.375 0.875 0
-0.25 0.875 0
-0.375 1 0
-0.25 1 0
0 0.75 0
0.125 0.75 0
0 0.875 0
0.125 0.875 0
0.125 0.75 0
0.25 0.75 0
0.125 0.875 0
0.25 0.875 0
0 0.875 0
0.125 0.875 0
0 1 0
0.125 1 0
0.125 0.875 0
0.25 0.875 0
0.125 1 0
0.25 1 0
0.5 -1 0
0.625 -1 0
0.5 -0.875 0
0.625 -0.875 0
0.625 -1 0
0.75 -1 0
0.625 -0.875 0
0.75 -0.875 0
0.5 -0.875 0
0.625 -0.875 0
0.5 -0.75 0
0.625 -0.75 0
0.625 -0.875 0
0.75 -0.875 0
0.625 -0.75 0
0.75 -0.75 0
-0.75 0.75 0
-0.625 0.75 0
-0.75 0.875 0
-0.625 0.875 0
-0.625 0.75 0
-0.5 0.75 0
-0.625 0.875 0
-0.5 0.875 0
-0.75 0.875 0
-0.625 0.875 0
-0.75 1 0
-0.625 1 0
-0.625 0.875 0
-0.5 0.875 0
-0.625 1 0
-0.5 1 0
-0.75 -0.125 0
-0.6875 -0.125 0
-0.75 -0.0625 0
-0.6875 -0.0625 0
-0.5 -0.25 0
-0.4375 -0.25 0
-0.5 -0.1875 0
-0.4375 -0.1875 0
-0.4375 -0.25 0
-0.375 -0.25 0
-0.4375 -0.1875 0
-0.375 -0.1875 0
-0.375 -0.25 0
-0.3125 -0.25 0
-0.375 -0.1875 0
-0.3125 -0.1875 0
-0.3125 -0.25 0
-0.25 -0.25 0
-0.3125 -0.1875 0
-0.25 -0.1875 0
-0.3125 -0.1875 0
-0.25 -0.1875 0
-0.3125 -0.125 0
-0.25 -0.125 0
-0.125 -0.25 0
-0.0625 -0.25 0
-0.125 -0.1875 0
-0.0625 -0.1875 0
0.0625 -0.25 0
0.125 -0.25 0
0.0625 -0.1875 0
0.125 -0.1875 0
0.1875 -0.125 0
0.25 -0.125 0
0.1875 -0.0625 0
0.25 -0.0625 0
0.375 -0.25 0
0.4375 -0.25 0
0.375 -0.1875 0
0.4375 -0.1875 0
0.4375 -0.25 0
0.5 -0.25 0
0.4375 -0.1875 0
0.5 -0.1875 0
0.25 -0.125 0
0.3125 -0.125 0
0.25 -0.0625 0
0.3125 -0.0625 0
-0.3125 0.0625 0
-0.25 0.0625 0
-0.3125 0.125 0
-0.25 0.125 0
-0.5 0.1875 0
-0.4375 0.1875 0
-0.5 0.25 0
-0.4375 0.25 0
-0.4375 0.1875 0
-0.375 0.1875 0
-0.4375 0.25 0
-0.375 0.25 0
-0.25 0.0625 0
-0.1875 0.0625 0
-0.25 0.125 0
-0.1875 0.125 0
-0.125 0.1875 0
-0.0625 0.1875 0
-0.125 0.25 0
-0.0625 0.25 0
0.0625 0.1875 0
0.125 0.1875 0
0.0625 0.25 0
0.125 0.25 0
0.375 0.1875 0
0.4375 0.1875 0
0.375 0.25 0
0.4375 0.25 0
0.4375 0.1875 0
0.5 0.1875 0
0.4375 0.25 0
0.5 0.25 0
0.6875 0.0625 0
0.75 0.0625 0
0.6875 0.125 0
0.75 0.125 0
0.5 -0.25 0
0.5625 -0.25 0
0.5 -0.1875 0
0.5625 -0.1875 0
0.5625 -0.25 0
0.625 -0.25 0
0.5625 -0.1875 0
0.625 -0.1875 0
0.6875 -0.125 0
0.75 -0.125 0
0.6875 -0.0625 0
0.75 -0.0625 0
0.6875 -0.0625 0
0.75 -0.0625 0
0.6875 0 0
0.75 0 0
-0.75 0.0625 0
-0.6875 0.0625 0
-0.75 0.125 0
-0.6875 0.125 0
-0.625 0.1875 0
-0.5625 0.1875 0
-0.625 0.25 0
-0.5625 0.25 0
-0.5625 0.1875 0
-0.5 0.1875 0
-0.5625 0.25 0
-0.5 0.25 0
-0.75 -0.25 0
-0.6875 -0.25 0
-0.75 -0.1875 0
-0.6875 -0.1875 0
-0.6875 -0.25 0
-0.625 -0.25 0
-0.6875 -0.1875 0
-0.625 -0.1875 0
-0.75 -0.1875 0
-0.6875 -0.1875 0
-0.75 -0.125 0
-0.6875 -0.125 0
-0.6875 -0.1875 0
-0.625 -0.1875 0
-0.6875 -0.125 0
-0.625 -0.125 0
-0.625 -0.25 0
-0.5625 -0.25 0
-0.625 -0.1875 0
-0.5625 -0.1875 0
-0.5625 -0.25 0
-0.5 -0.25 0
-0.5625 -0.1875 0
-0.5 -0.1875 0
-0.25 -0.25 0
-0.1875 -0.25 0
-0.25 -0.1875 0
-0.1875 -0.1875 0
-0.1875 -0.25 0
-0.125 -0.25 0
-0.1875 -0.1875 0
-0.125 -0.1875 0
-0.25 -0.1875 0
-0.1875 -0.1875 0
-0.25 -0.125 0
-0.1875 -0.125 0
-0.1875 -0.1875 0
-0.125 -0.1875 0
-0.1875 -0.125 0
-0.125 -0.125 0
0.125 -0.25 0
0.1875 -0.25 0
0.125 -0.1875 0
0.1875 -0.1875 0
0.1875 -0.25 0
0.25 -0.25 0
0.1875 -0.1875 0
0.25 -0.1875 0
0.125 -0.1875 0
0.1875 -0.1875 0
0.125 -0.125 0
0.1875 -0.125 0
0.1875 -0.1875 0
0.25 -0.1875 0
0.1875 -0.125 0
0.25 -0.125 0
0.25 -0.25 0
0.3125 -0.25 0
0.25 -0.1875 0
0.3125 -0.1875 0
0.3125 -0.25 0
0.375 -0.25 0
0.3125 -0.1875 0
0.375 -0.1875 0
0.25 -0.1875 0
0.3125 -0.1875 0
0.25 -0.125 0
0.3125 -0.125 0
0.3125 -0.1875 0
0.375 -0.1875 0
0.3125 -0.125 0
0.375 -0.125 0
-0.375 0.125 0
-0.3125 0.125 0
-0.375 0.1875 0
-0.3125 0.1875 0
-0.3125 0.125 0
-0.25 0.125 0
-0.3125 0.1875 0
-0.25 0.1875 0
-0.375 0.1875 0
-0.3125 0.1875 0
-0.375 0.25 0
-0.3125 0.25 0
-0.3125 0.1875 0
-0.25 0.1875 0
-0.3125 0.25 0
-0.25 0.25 0
-0.25 0.125 0
-0.1875 0.125 0
-0.25 0.1875 0
-0.1875 0.1875 0
-0.1875 0.125 0
-0.125 0.125 0
-0.1875 0.1875 0
-0.125 0.1875 0
-0.25 0.1875 0
-0.1875 0.1875 0
-0.25 0.25 0
-0.1875 0.25 0
-0.1875 0.1875 0
-0.125 0.1875 0
-0.1875 0.25 0
-0.125 0.25 0
0.125 0.125 0
0.1875 0.125 0
0.125 0.1875 0
0.1875 0.1875 0
0.1875 0.125 0
0.25 0.125 0
0.1875 0.1875 0
0.25 0.1875 0
0.125 0.1875 0
0.1875 0.1875 0
0.125 0.25 0
0.1875 0.25 0
0.1875 0.1875 0
0.25 0.1875 0
0.1875 0.25 0
0.25 0.25 0
0.25 0.125 0
0.3125 0.125 0
0.25 0.1875 0
0.3125 0.1875 0
0.25 0.1875 0
0.3125 0.1875 0
0.25 0.25 0
0.3125 0.25 0
0.3125 0.1875 0
0.375 0.1875 0
0.3125 0.25 0
0.375 0.25 0
0.5 0.1875 0
0.5625 0.1875 0
0.5 0.25 0
0.5625 0.25 0
0.5625 0.1875 0
0.625 0.1875 0
0.5625 0.25 0
0.625 0.25 0
0.625 0.125 0
0.6875 0.125 0
0.625 0.1875 0
0.6875 0.1875 0
0.6875 0.125 0
0.75 0.125 0
0.6875 0.1875 0
0.75 0.1875 0
0.625 0.1875 0
0.6875 0.1875 0
[...]
POINT_DATA 3748
SCALARS x_displacement double 1
LOOKUP_TABLE default
0 0 0.00351547 0.00384263 0.00384397 0.00351725 0 0 0 0 0 0.00235967 0 0 0.00235967 0.00351547 0 0 0.00013175 0 0 0.000131263 0 0 0.00351725 0.00236056 0 0 0.00236056 0 0 0 0 0.00430406 0 0.0054889 0 0.0054889 0 0.00590203 0.00584541 0 0.00545852 0 0.00545852 0 0.00429278 0 0.00338397 0 0.00493319 0 0.00493319 0 0.00584541 0 0 0.00590203 0 0.00497502 0 0.00497502 0 0.00340079 0.00139779 0.00075575 0.00299597 0.00205573 0.00075575 0.00035408 0.00205573 0.00139719 0.00299597 0.00205573 0.00527122 0.00411283 0.00205573 0.00139719 0.00411283 0.00321149 0.00321793 0.00412007 0.00139859 0.00205788 0.00412007 0.00527769 0.00205788 0.00299838 0.00139859 0.00205788 0.000353385 0.000755529 0.00205788 0.00299838 0.000755529 0.0013981 0 0.00236796 0 0.00320149 0.00236796 0.00443735 0.00320149 0.00613281 0 0.00320149 0 0.00430406 0.00429278 0 0.00319702 0 0.00612608 0.00319702 0.00443565 0.00236646 0.00319702 0 0.00236646 0 0.00102938 0 0.00196035 0 0 0.00196689 0 0.00103182 0.00351547 0.00367905 0.00536991 0.00607093 0.00367905 0.00384263 0.00607093 0.00630631 0.00536991 0.00607093 0.00774321 0.00889403 0.00607093 0.00630631 0.00889403 0.00945587 0.00384263 0.00358739 0.00630631 0.00602661 0.00358739 0.00298215 0.00602661 0.00525482 0.00630631 0.00602661 0.00945587 0.00916984 0 0 0.00128432 0.000831319 0 0 0.000831319 0.000392601 0.00128432 0.000831319 0.00298215 0.00219464 0.000831319 0.000392601 0.00219464 0.00139779 0.00298215 0.00219464 0.00525482 0.00412218 0.00219464 0.00139779 0.00412218 0.00299597 0.00412218 0.00299597 0.0066505 0.00527122 0.00527769 0.00665492 0.00299838 0.00412421 0.00299838 0.00412421 0.0013981 0.0021953 0.00412421 0.00525612 0.0021953 0.00298299 0.0013981 0.0021953 0.000392192 0.000831338 0.0021953 0.00298299 0.000831338 0.0012847 0.000392192 0.000831338 0 0 0.000831338 0.0012847 0 0 0.00916884 0.00945292 0.00602716 0.00630636 0.00525612 0.00602716 0.00298299 0.00358838 0.00602716 0.00630636 0.00358838 0.00384397 0.00945292 0.00889031 0.00630636 0.00607104 0.00889031 0.00773994 0.00607104 0.00537037 0.00630636 0.00607104 0.00384397 0.00368061 0.00607104 0.00537037 0.00368061 0.00351725 0 0.00117983 0 0.00178055 0.00117983 0.00235967 0.00178055 0.00319461 0 0.00178055 0 0.00236796 0.00178055 0.00319461 0.00236796 0.00443735 0.00235967 0.00293757 0.00319461 0.00443933 0.00293757 0.00351547 0.00443933 0.00536991 0.00319461 0.00443933 0.00443735 0.00622964 0.00443933 0.00536991 0.00622964 0.00774321 0.00035408 0.000188778 0.00139719 0.000988145 0.000188778 0.00013175 0.000988145 0.000692686 0.00139719 0.000988145 0.00321149 0.00249598 0.000988145 0.000692686 0.00249598 0.00182036 0.00013175 6.58751e-05 0.000692686 0.000461663 6.58751e-05 0 0.000461663 0 0.000461663 0 0.00102938 0 0 0.00103182 0 0.000462425 0 0.000462425 0 6.56314e-05 0.000462425 0.00069309 6.56314e-05 0.000131263 0.00182376 0.00250074 0.00069309 0.000988834 0.00250074 0.00321793 0.000988834 0.00139859 0.00069309 0.000988834 0.000131263 0.000187983 0.000988834 0.00139859 0.000187983 0.000353385 0.00773994 0.00622732 0.00537037 0.00443996 0.00622732 0.00443565 0.00443996 0.00319494 0.00537037 0.00443996 0.00351725 0.00293891 0.00443996 0.00319494 0.00293891 0.00236056 0.00443565 0.00236646 0.00319494 0.00178031 0.00236646 0 0.00178031 0 0.00319494 0.00178031 0.00236056 0.00118028 0.00178031 0 0.00118028 0 0 0 0.00192131 0.00166095 0 0 0.00166095 0.00128432 0.00192131 0.00166095 0.00384263 0.00358739 0.00166095 0.00128432 0.00358739 0.00298215 0 0 0.000392601 5.65166e-05 0 0 5.65166e-05 -0.000118604 0.000392601 5.65166e-05 0.00139779 0.00075575 5.65166e-05 -0.000118604 0.00075575 0.00035408 0.000353385 0.000755529 -0.000119669 5.56904e-05 0.000755529 0.0013981 5.56904e-05 0.000392192 -0.000119669 5.56904e-05 0 0 5.56904e-05 0.000392192 0 0 0.00298299 0.00358838 0.0012847 0.00166159 0.00358838 0.00384397 0.00166159 0.00192198 0.0012847 0.00166159 0 0 0.00166159 0.00192198 0 0 0 0 -0.000118604 -0.000117557 0 0 -0.000117557 6.58751e-05 -0.000118604 -0.000117557 0.00035408 0.000188778 -0.000117557 6.58751e-05 0.000188778 0.00013175 0.000131263 0.000187983 6.56314e-05 -0.000118484 0.000187983 0.000353385 -0.000118484 -0.000119669 6.56314e-05 -0.000118484 0 0 -0.000118484 -0.000119669 0 0 0.011719 0.0151488 0.0128132 0.0167893 0.0156716 0.0166992 0.0194859 0.0203494 0.0166992 0.017423 0.0203494 0.0205229 0.017423 0.0178492 0.0205229 0.0204797 0.0178492 0.0179904 0.0204797 0.0202393 0.0204797 0.0202393 0.0228592 0.0220232 0.0172621 0.0164047 0.0190521 0.0180307 0.0142821 0.0134995 0.016136 0.0154791 0.0176213 0.0182799 0.0197928 0.0208014 0.0125546 0.0122538 0.0163474 0.016593 0.0122538 0.0117026 0.016593 0.0161767 0.0182799 0.019384 0.0208014 0.0224191 0.0224595 0.0208324 0.0194213 0.0183089 0.016228 0.0166386 0.0117391 0.0122882 0.0166386 0.0163865 0.0122882 0.0125853 0.0208324 0.0198154 0.0183089 0.0176427 0.0154922 0.0161432 0.0135109 0.0142886 0.0180264 0.0190422 0.0164017 0.0172543 0.0204909 0.0203129 0.0173991 0.0166729 0.0203129 0.0194462 0.0166729 0.0156443 0.0166954 0.0127327 0.015093 0.0116677 0.0117026 0.0108312 0.0161767 0.0149577 0.0108312 0.00967959 0.0149577 0.0130668 0.0137082 0.0105847 0.0159694 0.0121276 0.0159694 0.0121276 0.0170236 0.0129346 0.0122676 0.0160865 0.0106565 0.0137906 0.0131202 0.0150121 0.00971413 0.0108677 0.0150121 0.016228 0.0108677 0.0117391 0.00867791 0.0107394 0.0102217 0.0128851 0.0107394 0.0126342 0.0128851 0.0154854 0.0102217 0.0128851 0.011719 0.0151488 0.0128851 0.0154854 0.0151488 0.0186572 0.0126342 0.0142979 0.0154854 0.0178178 0.0142979 0.0156716 0.0178178 0.0194859 0.0179904 0.0178058 0.0202393 0.0197956 0.0178058 0.0172621 0.0197956 0.0190521 0.0202393 0.0197956 0.0220232 0.0211812 0.0197956 0.0190521 0.0211812 0.0201343 0.0134995 0.013019 0.0154791 0.0152689 0.013019 0.0127997 0.0152689 0.0154685 0.0154791 0.0152689 0.0175791 0.0176213 0.0152689 0.0154685 0.0176213 0.0182799 0.0127997 0.0126955 0.0154685 0.0158869 0.0126955 0.0125546 0.0158869 0.0163474 0.0154685 0.0158869 0.0182799 0.019384 0.0158869 0.0163474 0.019384 0.0206684 0.0207148 0.0194213 0.0163865 0.0159191 0.0194213 0.0183089 0.0159191 0.0154941 0.0163865 0.0159191 0.0125853 0.0127217 0.0159191 0.0154941 0.0127217 0.0128211 0.0183089 0.0176427 0.0154941 0.0152882 0.0176427 0.0175934 0.0152882 0.0154922 0.0154941 0.0152882 0.0128211 0.0130354 0.0152882 0.0154922 0.0130354 0.0135109 0.0201223 0.0211625 0.0190422 0.01978 0.0211625 0.0219976 0.01978 0.0202181 0.0190422 0.01978 0.0172543 0.0177935 0.01978 0.0202181 0.0177935 0.0179738 0.0219976 0.0228263 0.0202181 0.0204529 0.0202181 0.0204529 0.0179738 0.0178286 0.0204529 0.0204909 0.0178286 0.0173991 0.0194462 0.0177773 0.0156443 0.0142713 0.0177773 0.015447 0.0142713 0.0126095 0.0185971 0.015093 0.015447 0.0128497 0.015093 0.0116677 0.0128497 0.0101902 0.015447 0.0128497 0.0126095 0.0107173 0.0128497 0.0101902 0.0107173 0.00865855 0.00916984 0.00873965 0.0110009 0.0104925 0.00873965 0.0081261 0.0104925 0.00979474 0.0110009 0.0104925 0.0130333 0.012415 0.0104925 0.00979474 0.012415 0.0115992 0.0130333 0.012415 0.0151657 0.0144281 0.012415 0.0115992 0.0144281 0.0134761 0.0151657 0.0144281 0.0172621 0.0164047 0.0144281 0.0134761 0.0164047 0.0153191 0.0081261 0.00740657 0.00979474 0.00899622 0.00740657 0.0066505 0.00899622 0.00819629 0.00979474 0.00899622 0.0115992 0.010707 0.00899622 0.00819629 0.010707 0.00984857 0.0115992 0.010707 0.0134761 0.0124856 0.010707 0.00984857 0.0124856 0.0116242 0.0134761 0.0124856 0.0153191 0.0142821 0.0124856 0.0116242 0.0142821 0.0134995 0.0073297 0.00680488 0.00961064 0.00913568 0.00680488 0.00627275 0.00913568 0.00856922 0.00961064 0.00913568 0.0125546 0.0122538 0.00913568 0.00856922 0.0122538 0.0117026 0.0117391 0.0122882 0.00859435 0.00916035 0.0122882 0.0125853 0.00916035 0.00963358 0.00859435 0.00916035 0.0062895 0.0068219 0.00916035 0.00963358 0.0068219 0.0073461 0.0135109 0.0142886 0.0116338 0.0124913 0.0142886 0.0153208 0.0124913 0.0134779 0.0116338 0.0124913 0.00985624 0.0107117 0.0124913 0.0134779 0.0107117 0.0116011 0.00985624 0.0107117 0.0082022 0.00900011 0.0107117 0.0116011 0.00900011 0.00979654 0.0082022 0.00900011 0.00665492 0.00740967 0.00900011 0.00979654 0.00740967 0.00812777 0.0153208 0.0164017 0.0134779 0.0144261 0.0164017 0.0172543 0.0144261 0.0151601 0.0134779 0.0144261 0.0116011 0.012414 0.0144261 0.0151601 0.012414 0.0130296 0.0116011 0.012414 0.00979654 0.0104923 0.012414 0.0130296 0.0104923 0.0109987 0.00979654 0.0104923 0.00812777 0.00873992 0.0104923 0.0109987 0.00873992 0.00916884 0.00967959 0.00829827 0.0130668 0.010898 0.00829827 0.00674415 0.010898 0.00865628 0.0130668 0.010898 0.0169031 0.0137082 0.010898 0.00865628 0.0137082 0.0105847 0.0106565 0.0137906 0.00870183 0.0109477 0.0137906 0.0169854 0.0109477 0.0131202 0.00870183 0.0109477 0.00677208 0.0083298 0.0109477 0.0131202 0.0083298 0.00971413 0.00872486 0.00984367 0.0104359 0.0117781 0.00984367 0.0108641 0.0117781 0.0129576 0.0104359 0.0117781 0.0126342 0.0142979 0.0117781 0.0129576 0.0142979 0.0156716 0.0054889 0.00849164 0.00569547 0.00913189 0.00849164 0.011719 0.00913189 0.0128132 0.00569547 0.00913189 0.00590203 0.00925357 0.00913189 0.0128132 0.00925357 0.0130954 0.0108641 0.0117649 0.0129576 0.0139678 0.0117649 0.0125227 0.0139678 0.0147778 0.0129576 0.0139678 0.0156716 0.0166992 0.0139678 0.0147778 0.0166992 0.017423 0.0173991 0.0166729 0.0147609 0.0139498 0.0166729 0.0156443 0.0139498 0.0129396 0.0147609 0.0139498 0.0125115 0.0117533 0.0139498 0.0129396 0.0117533 0.0108527 0.0129346 0.00915827 0.0127327 0.00906237 0.00915827 0.00584541 0.00906237 0.00565196 0.0127327 0.00906237 0.0116677 0.0084493 0.00906237 0.00565196 0.0084493 0.00545852 0.0156443 0.0142713 0.0129396 0.011761 0.0142713 0.0126095 0.011761 0.0104205 0.0129396 0.011761 0.0108527 0.00983321 0.011761 0.0104205 0.00983321 0.00871558 0.00321149 0.00285374 0.00454336 0.00408607 0.00285374 0.00249598 0.00408607 0.00362988 0.00454336 0.00408607 0.00627275 0.00571905 0.00408607 0.00362988 0.00571905 0.00512327 0.00249598 0.00215817 0.00362988 0.00316085 0.00215817 0.00182036 0.00316085 0.00266027 0.00362988 0.00316085 0.00512327 0.00446417 0.00316085 0.00266027 0.00446417 0.00372053 0.00627275 0.00571905 0.00856922 0.00789192 0.00571905 0.00512327 0.00789192 0.00708827 0.00856922 0.00789192 0.0117026 0.0108312 0.00789192 0.00708827 0.0108312 0.00967959 0.00512327 0.00446417 0.00708827 0.00614996 0.00446417 0.00372053 0.00614996 0.00507715 0.00708827 0.00614996 0.00967959 0.00829827 0.00614996 0.00507715 0.00829827 0.00674415 0.00674415 0.00508727 0.00865628 0.00639407 0.00508727 0.00338397 0.00639407 0.00415858 0.00865628 0.00639407 0.0105847 0.00765107 0.00639407 0.00415858 0.00765107 0.00493319 0.0105847 0.00765107 0.0121276 0.00864195 0.00765107 0.00493319 0.00864195 0.0053893 0.0121276 0.00864195 0.0129346 0.00915827 0.00864195 0.0053893 0.00915827 0.00584541 0.00590203 0.00925357 0.00543853 0.00873104 0.00925357 0.0130954 0.00873104 0.0122676 0.00543853 0.00873104 0.00497502 0.00771346 0.00873104 0.0122676 0.00771346 0.0106565 0.00497502 0.00771346 0.00418791 0.00643247 0.00771346 0.0106565 0.00643247 0.00870183 0.00418791 0.00643247 0.00340079 0.00511088 0.00643247 0.00870183 0.00511088 0.00677208 0.00677208 0.0083298 0.00509434 0.00616974 0.0083298 0.00971413 0.00616974 0.00711051 0.00509434 0.00616974 0.00373097 0.00447636 0.00616974 0.00711051 0.00447636 0.00513726 0.00971413 0.0108677 0.00711051 0.00791612 0.0108677 0.0117391 0.00791612 0.00859435 0.00711051 0.00791612 0.00513726 0.00573467 0.00791612 0.00859435 0.00573467 0.0062895 0.00373097 0.00447636 0.00266651 0.00316809 0.00447636 0.00513726 0.00316809 0.00363832 0.00266651 0.00316809 0.00182376 0.00216225 0.00316809 0.00363832 0.00216225 0.00250074 0.00513726 0.00573467 0.00363832 0.00409577 0.00573467 0.0062895 0.00409577 0.00455403 0.00363832 0.00409577 0.00250074 0.00285933 0.00409577 0.00455403 0.00285933 0.00321793 0.00945587 0.00931286 0.011281 0.0112914 0.00931286 0.00916984 0.0112914 0.0110009 0.011281 0.0112914 0.013374 0.0133617 0.0112914 0.0110009 0.0133617 0.0130333 0.013374 0.0133617 0.0156328 0.0155774 0.0133617 0.0130333 0.0155774 0.0151657 0.0156328 0.0155774 0.0179904 0.0178058 0.0155774 0.0151657 0.0178058 0.0172621 0.0066505 0.00596086 0.00819629 0.0074192 0.00596086 0.00527122 0.0074192 0.00672946 0.00819629 0.0074192 0.00984857 0.0090905 0.0074192 0.00672946 0.0090905 0.00843791 0.00984857 0.0090905 0.0116242 0.0109555 0.0090905 0.00843791 0.0109555 0.0104501 0.0116242 0.0109555 0.0134995 0.013019 0.0109555 0.0104501 0.013019 0.0127997 0.00527122 0.00469203 0.00672946 0.00610765 0.00469203 0.00411283 0.00610765 0.00554479 0.00672946 0.00610765 0.00843791 0.0078654 0.00610765 0.00554479 0.0078654 0.0073297 0.00411283 0.00366216 0.00554479 0.00502452 0.00366216 0.00321149 0.00502452 0.00454336 0.00554479 0.00502452 0.0073297 0.00680488 0.00502452 0.00454336 0.00680488 0.00627275 0.00843791 0.0078654 0.0104501 0.0100297 0.0078654 0.0073297 0.0100297 0.00961064 0.0104501 0.0100297 0.0127997 0.0126955 0.0100297 0.00961064 0.0126955 0.0125546 0.0125853 0.0127217 0.00963358 0.01005 0.0127217 0.0128211 0.01005 0.010467 0.00963358 0.01005 0.0073461 0.00788035 0.01005 0.010467 0.00788035 0.00845082 0.0062895 0.0068219 0.00455403 0.00503576 0.0068219 0.0073461 0.00503576 0.00555594 0.00455403 0.00503576 0.00321793 0.003669 0.00503576 0.00555594 0.003669 0.00412007 0.0073461 0.00788035 0.00555594 0.00611817 0.00788035 0.00845082 0.00611817 0.00673879 0.00555594 0.00611817 0.00412007 0.00469888 0.00611817 0.00673879 0.00469888 0.00527769 0.0128211 0.0130354 0.010467 0.0109689 0.0130354 0.0135109 0.0109689 0.0116338 0.010467 0.0109689 0.00845082 0.00910092 0.0109689 0.0116338 0.00910092 0.00985624 0.00845082 0.00910092 0.00673879 0.00742698 0.00910092 0.00985624 0.00742698 0.0082022 0.00673879 0.00742698 0.00527769 0.0059663 0.00742698 0.0082022 0.0059663 0.00665492 0.0172543 0.0177935 0.0151601 0.0155684 0.0177935 0.0179738 0.0155684 0.0156205 0.0151601 0.0155684 0.0130296 0.0133554 0.0155684 0.0156205 0.0133554 0.0133656 0.0130296 0.0133554 0.0109987 0.0112874 0.0133554 0.0133656 0.0112874 0.0112757 0.0109987 0.0112874 0.00916884 0.00931088 0.0112874 0.0112757 0.00931088 0.00945292 0.00443735 0.00533349 0.00528508 0.00634541 0.00533349 0.00622964 0.00634541 0.00734596 0.00528508 0.00634541 0.00613281 0.00749292 0.00634541 0.00734596 0.00749292 0.00872486 0.00622964 0.00698643 0.00734596 0.00829795 0.00698643 0.00774321 0.00829795 0.00914883 0.00734596 0.00829795 0.00872486 0.00984367 0.00829795 0.00914883 0.00984367 0.0108641 0.00613281 0.00749292 0.00729271 0.00893824 0.00749292 0.00872486 0.00893824 0.0104359 0.00729271 0.00893824 0.00867791 0.0107394 0.00893824 0.0104359 0.0107394 0.0126342 0.00430406 0.00651655 0.00489648 0.0075442 0.00651655 0.00867791 0.0075442 0.0102217 0.00489648 0.0075442 0.0054889 0.00849164 0.0075442 0.0102217 0.00849164 0.011719 0.00774321 0.00831862 0.00914883 0.00993118 0.00831862 0.00889403 0.00993118 0.0105591 0.00914883 0.00993118 0.0108641 0.0117649 0.00993118 0.0105591 0.0117649 0.0125227 0.00889403 0.00917495 0.0105591 0.0110451 0.00917495 0.00945587 0.0110451 0.011281 0.0105591 0.0110451 0.0125227 0.0130741 0.0110451 0.011281 0.0130741 0.013374 0.0125227 0.0130741 0.0147778 0.0153519 0.0130741 0.013374 0.0153519 0.0156328 0.0147778 0.0153519 0.017423 0.0178492 0.0153519 0.0156328 0.0178492 0.0179904 0.0179738 0.0178286 0.0156205 0.015337 0.0178286 0.0173991 0.015337 0.0147609 0.0156205 0.015337 0.0133656 0.013064 0.015337 0.0147609 0.013064 0.0125115 0.0133656 0.013064 0.0112757 0.0110387 0.013064 0.0125115 0.0110387 0.0105522 0.0112757 0.0110387 0.00945292 0.00917162 0.0110387 0.0105522 0.00917162 0.00889031 0.0125115 0.0117533 0.0105522 0.00992422 0.0117533 0.0108527 0.00992422 0.00914227 0.0105522 0.00992422 0.00889031 0.00831512 0.00992422 0.00914227 0.00831512 0.00773994 0.0116677 0.0084493 0.0101902 0.00751748 0.0084493 0.00545852 0.00751748 0.00487565 0.0101902 0.00751748 0.00865855 0.00650041 0.00751748 0.00487565 0.00650041 0.00429278 0.0126095 0.0107173 0.0104205 0.00892467 0.0107173 0.00865855 0.00892467 0.00728112 0.0104205 0.00892467 0.00871558 0.00748489 0.00892467 0.00728112 0.00748489 0.00612608 0.0108527 0.00983321 0.00914227 0.00829205 0.00983321 0.00871558 0.00829205 0.00734086 0.00914227 0.00829205 0.00773994 0.00698363 0.00829205 0.00734086 0.00698363 0.00622732 0.00871558 0.00748489 0.00734086 0.00634097 0.00748489 0.00612608 0.00634097 0.00528087 0.00734086 0.00634097 0.00622732 0.00533149 0.00634097 0.00528087 0.00533149 0.00443565 0.00320149 0.00466715 0.00375278 0.00555445 0.00466715 0.00613281 0.00555445 0.00729271 0.00375278 0.00555445 0.00430406 0.00651655 0.00555445 0.00729271 0.00651655 0.00867791 0.00865855 0.00650041 0.00728112 0.00554475 0.00650041 0.00429278 0.00554475 0.0037449 0.00728112 0.00554475 0.00612608 0.00466155 0.00554475 0.0037449 0.00466155 0.00319702 0.00182036 0.00146251 0.00266027 0.00208947 0.00146251 0.00102938 0.00208947 0.00149486 0.00266027 0.00208947 0.00372053 0.00288914 0.00208947 0.00149486 0.00288914 0.00196035 0.00372053 0.00288914 0.00507715 0.00388558 0.00288914 0.00196035 0.00388558 0.00262301 0.00507715 0.00388558 0.00674415 0.00508727 0.00388558 0.00262301 0.00508727 0.00338397 0.00196035 0.000980175 0.00262301 0.00132162 0.000980175 0 0.00132162 0 0.00262301 0.00132162 0.00338397 0.00169199 0.00132162 0 0.00169199 0 0 0.0017004 0 0.00132766 0.0017004 0.00340079 0.00132766 0.00263352 0 0.00132766 0 0.000983446 0.00132766 0.00263352 0.000983446 0.00196689 0.00340079 0.00511088 0.00263352 0.00389966 0.00511088 0.00677208 0.00389966 0.00509434 0.00263352 0.00389966 0.00196689 0.00289787 0.00389966 0.00509434 0.00289787 0.00373097 0.00196689 0.00289787 0.00149936 0.00209476 0.00289787 0.00373097 0.00209476 0.00266651 0.00149936 0.00209476 0.00103182 0.00146554 0.00209476 0.00266651 0.00146554 0.00182376 0.00602661 0.00564072 0.00759823 0.00715131 0.00564072 0.00525482 0.00715131 0.00660289 0.00759823 0.00715131 0.00916984 0.00873965 0.00715131 0.00660289 0.00873965 0.0081261 0.00525482 0.0046885 0.00660289 0.00600368 0.0046885 0.00412218 0.00600368 0.00538634 0.00660289 0.00600368 0.0081261 0.00740657 0.00600368 0.00538634 0.00740657 0.0066505 0.00665492 0.00740967 0.00538957 0.00600605 0.00740967 0.00812777 0.00600605 0.00660439 0.00538957 0.00600605 0.00412421 0.00469017 0.00600605 0.00660439 0.00469017 0.00525612 0.00812777 0.00873992 0.00660439 0.00715193 0.00873992 0.00916884 0.00715193 0.007598 0.00660439 0.00715193 0.00525612 0.00564164 0.00715193 0.007598 0.00564164 0.00602716 0.000692686 0.000577175 0.00125652 0.000991979 0.000577175 0.000461663 0.000991979 0.000745521 0.00125652 0.000991979 0.00182036 0.00146251 0.000991979 0.000745521 0.00146251 0.00102938 0.00103182 0.00146554 0.000747124 0.000993635 0.00146554 0.00182376 0.000993635 0.00125843 0.000747124 0.000993635 0.000462425 0.000577757 0.000993635 0.00125843 0.000577757 0.00069309 0.0213112 0.0223012 0.0224426 0.0234381 0.0223012 0.0230644 0.0234381 0.0241941 0.0224426 0.0234381 0.0231668 0.0241538 0.0234381 0.0241941 0.0241538 0.0249 0.0230644 0.0235871 0.0241941 0.024714 0.0235871 0.0238841 0.024714 0.0249961 0.0241941 0.024714 0.0249 0.025406 0.024714 0.0249961 0.025406 0.0256738 0.0238841 0.0239426 0.0249961 0.0250432 0.0239426 0.0237728 0.0250432 0.024849 0.0249961 0.0250432 0.0256738 0.0257041 0.0250432 0.024849 0.0257041 0.0254984 0.0191373 0.0187447 0.0195406 0.0192065 0.0187447 0.0184134 0.0192065 0.0189426 0.0195406 0.0192065 0.0197973 0.0195282 0.0192065 0.0189426 0.0195282 0.0193353 0.0205608 0.0201402 0.0205409 0.0201758 0.0201402 0.0197973 0.0201758 0.019895 0.0205409 0.0201758 0.020336 0.0200371 0.0201758 0.019895 0.0200371 0.0198268 0.0197973 0.0195282 0.019895 0.019696 0.0195282 0.0193353 0.019696 0.0195772 0.019895 0.019696 0.0198268 0.0197016 0.019696 0.0195772 0.0197