# vtk DataFile Version 3.0
#This file was generated by the deal.II library on 2020/5/23 at 14:52:59
ASCII
DATASET UNSTRUCTURED_GRID

POINTS 7132 double
0 -1 0
0.125 -1 0
0 -0.875 0
0.125 -0.875 0
0.125 -1 0
0.25 -1 0
0.125 -0.875 0
0.25 -0.875 0
-0.25 0.875 0
-0.125 0.875 0
-0.25 1 0
-0.125 1 0
-0.125 0.875 0
0 0.875 0
-0.125 1 0
0 1 0
-1 -0.75 0
-0.875 -0.75 0
-1 -0.625 0
-0.875 -0.625 0
-0.625 -0.75 0
-0.5 -0.75 0
-0.625 -0.625 0
-0.5 -0.625 0
0.875 -0.75 0
1 -0.75 0
0.875 -0.625 0
1 -0.625 0
-1 0.625 0
-0.875 0.625 0
-1 0.75 0
-0.875 0.75 0
0.5 0.625 0
0.625 0.625 0
0.5 0.75 0
0.625 0.75 0
0.875 0.625 0
1 0.625 0
0.875 0.75 0
1 0.75 0
-0.25 -1 0
-0.125 -1 0
-0.25 -0.875 0
-0.125 -0.875 0
-0.125 -1 0
0 -1 0
-0.125 -0.875 0
0 -0.875 0
0.25 -1 0
0.375 -1 0
0.25 -0.875 0
0.375 -0.875 0
0.375 -1 0
0.5 -1 0
0.375 -0.875 0
0.5 -0.875 0
-0.5 0.875 0
-0.375 0.875 0
-0.5 1 0
-0.375 1 0
-0.375 0.875 0
-0.25 0.875 0
-0.375 1 0
-0.25 1 0
0 0.875 0
0.125 0.875 0
0 1 0
0.125 1 0
0.125 0.875 0
0.25 0.875 0
0.125 1 0
0.25 1 0
0.5 -1 0
0.625 -1 0
0.5 -0.875 0
0.625 -0.875 0
0.625 -1 0
0.75 -1 0
0.625 -0.875 0
0.75 -0.875 0
-0.75 0.875 0
-0.625 0.875 0
-0.75 1 0
-0.625 1 0
-0.625 0.875 0
-0.5 0.875 0
-0.625 1 0
-0.5 1 0
-0.5 -1 0
-0.375 -1 0
-0.5 -0.875 0
-0.375 -0.875 0
-0.375 -1 0
-0.25 -1 0
-0.375 -0.875 0
-0.25 -0.875 0
-0.5 -0.875 0
-0.375 -0.875 0
-0.5 -0.75 0
-0.375 -0.75 0
-0.375 -0.875 0
-0.25 -0.875 0
-0.375 -0.75 0
-0.25 -0.75 0
0.25 0.75 0
0.375 0.75 0
0.25 0.875 0
0.375 0.875 0
0.375 0.75 0
0.5 0.75 0
0.375 0.875 0
0.5 0.875 0
0.25 0.875 0
0.375 0.875 0
0.25 1 0
0.375 1 0
0.375 0.875 0
0.5 0.875 0
0.375 1 0
0.5 1 0
-1 -1 0
-0.875 -1 0
-1 -0.875 0
-0.875 -0.875 0
-0.875 -1 0
-0.75 -1 0
-0.875 -0.875 0
-0.75 -0.875 0
-1 -0.875 0
-0.875 -0.875 0
-1 -0.75 0
-0.875 -0.75 0
-0.875 -0.875 0
-0.75 -0.875 0
-0.875 -0.75 0
-0.75 -0.75 0
-0.75 -1 0
-0.625 -1 0
-0.75 -0.875 0
-0.625 -0.875 0
-0.625 -1 0
-0.5 -1 0
-0.625 -0.875 0
-0.5 -0.875 0
-0.75 -0.875 0
-0.625 -0.875 0
-0.75 -0.75 0
-0.625 -0.75 0
-0.625 -0.875 0
-0.5 -0.875 0
-0.625 -0.75 0
-0.5 -0.75 0
0.75 -1 0
0.875 -1 0
0.75 -0.875 0
0.875 -0.875 0
0.875 -1 0
1 -1 0
0.875 -0.875 0
1 -0.875 0
0.75 -0.875 0
0.875 -0.875 0
0.75 -0.75 0
0.875 -0.75 0
0.875 -0.875 0
1 -0.875 0
0.875 -0.75 0
1 -0.75 0
-1 0.75 0
-0.875 0.75 0
-1 0.875 0
-0.875 0.875 0
-0.875 0.75 0
-0.75 0.75 0
-0.875 0.875 0
-0.75 0.875 0
-1 0.875 0
-0.875 0.875 0
-1 1 0
-0.875 1 0
-0.875 0.875 0
-0.75 0.875 0
-0.875 1 0
-0.75 1 0
0.5 0.75 0
0.625 0.75 0
0.5 0.875 0
0.625 0.875 0
0.625 0.75 0
0.75 0.75 0
0.625 0.875 0
0.75 0.875 0
0.5 0.875 0
0.625 0.875 0
0.5 1 0
0.625 1 0
0.625 0.875 0
0.75 0.875 0
0.625 1 0
0.75 1 0
0.75 0.75 0
0.875 0.75 0
0.75 0.875 0
0.875 0.875 0
0.875 0.75 0
1 0.75 0
0.875 0.875 0
1 0.875 0
0.75 0.875 0
0.875 0.875 0
0.75 1 0
0.875 1 0
0.875 0.875 0
1 0.875 0
0.875 1 0
1 1 0
-0.75 -0.25 0
-0.6875 -0.25 0
-0.75 -0.1875 0
-0.6875 -0.1875 0
0.1875 -0.25 0
0.25 -0.25 0
0.1875 -0.1875 0
0.25 -0.1875 0
0.25 -0.25 0
0.3125 -0.25 0
0.25 -0.1875 0
0.3125 -0.1875 0
-0.3125 0.1875 0
-0.25 0.1875 0
-0.3125 0.25 0
-0.25 0.25 0
-0.25 0.1875 0
-0.1875 0.1875 0
-0.25 0.25 0
-0.1875 0.25 0
0.6875 0.1875 0
0.75 0.1875 0
0.6875 0.25 0
0.75 0.25 0
-0.125 -0.5 0
-0.0625 -0.5 0
-0.125 -0.4375 0
-0.0625 -0.4375 0
-0.0625 -0.5 0
0 -0.5 0
-0.0625 -0.4375 0
0 -0.4375 0
-0.125 -0.4375 0
-0.0625 -0.4375 0
-0.125 -0.375 0
-0.0625 -0.375 0
0 -0.5 0
0.0625 -0.5 0
0 -0.4375 0
0.0625 -0.4375 0
0.0625 -0.5 0
0.125 -0.5 0
0.0625 -0.4375 0
0.125 -0.4375 0
-0.125 0.4375 0
-0.0625 0.4375 0
-0.125 0.5 0
-0.0625 0.5 0
-0.0625 0.4375 0
0 0.4375 0
-0.0625 0.5 0
0 0.5 0
0.0625 0.375 0
0.125 0.375 0
0.0625 0.4375 0
0.125 0.4375 0
0 0.4375 0
0.0625 0.4375 0
0 0.5 0
0.0625 0.5 0
0.0625 0.4375 0
0.125 0.4375 0
0.0625 0.5 0
0.125 0.5 0
-0.625 -0.375 0
-0.5625 -0.375 0
-0.625 -0.3125 0
-0.5625 -0.3125 0
0.5625 0.3125 0
0.625 0.3125 0
0.5625 0.375 0
0.625 0.375 0
0.5 -0.5 0
0.5625 -0.5 0
0.5 -0.4375 0
0.5625 -0.4375 0
0.5625 -0.5 0
0.625 -0.5 0
0.5625 -0.4375 0
0.625 -0.4375 0
0.625 -0.5 0
0.6875 -0.5 0
0.625 -0.4375 0
0.6875 -0.4375 0
0.6875 -0.5 0
0.75 -0.5 0
0.6875 -0.4375 0
0.75 -0.4375 0
0.625 -0.4375 0
0.6875 -0.4375 0
0.625 -0.375 0
0.6875 -0.375 0
0.6875 -0.4375 0
0.75 -0.4375 0
0.6875 -0.375 0
0.75 -0.375 0
0.75 -0.25 0
0.8125 -0.25 0
0.75 -0.1875 0
0.8125 -0.1875 0
-0.8125 0.1875 0
-0.75 0.1875 0
-0.8125 0.25 0
-0.75 0.25 0
-0.75 0.375 0
-0.6875 0.375 0
-0.75 0.4375 0
-0.6875 0.4375 0
-0.6875 0.375 0
-0.625 0.375 0
-0.6875 0.4375 0
-0.625 0.4375 0
-0.75 0.4375 0
-0.6875 0.4375 0
-0.75 0.5 0
-0.6875 0.5 0
-0.6875 0.4375 0
-0.625 0.4375 0
-0.6875 0.5 0
-0.625 0.5 0
-0.625 0.4375 0
-0.5625 0.4375 0
-0.625 0.5 0
-0.5625 0.5 0
-0.5625 0.4375 0
-0.5 0.4375 0
-0.5625 0.5 0
-0.5 0.5 0
-0.25 -0.5 0
-0.1875 -0.5 0
-0.25 -0.4375 0
-0.1875 -0.4375 0
-0.1875 -0.5 0
-0.125 -0.5 0
-0.1875 -0.4375 0
-0.125 -0.4375 0
-0.25 -0.4375 0
-0.1875 -0.4375 0
-0.25 -0.375 0
-0.1875 -0.375 0
-0.1875 -0.4375 0
-0.125 -0.4375 0
-0.1875 -0.375 0
-0.125 -0.375 0
-0.25 -0.375 0
-0.1875 -0.375 0
-0.25 -0.3125 0
-0.1875 -0.3125 0
-0.1875 -0.375 0
-0.125 -0.375 0
-0.1875 -0.3125 0
-0.125 -0.3125 0
-0.25 -0.3125 0
-0.1875 -0.3125 0
-0.25 -0.25 0
-0.1875 -0.25 0
-0.1875 -0.3125 0
-0.125 -0.3125 0
-0.1875 -0.25 0
-0.125 -0.25 0
0.125 -0.5 0
0.1875 -0.5 0
0.125 -0.4375 0
0.1875 -0.4375 0
0.1875 -0.5 0
0.25 -0.5 0
0.1875 -0.4375 0
0.25 -0.4375 0
0.125 -0.4375 0
0.1875 -0.4375 0
0.125 -0.375 0
0.1875 -0.375 0
0.1875 -0.4375 0
0.25 -0.4375 0
0.1875 -0.375 0
0.25 -0.375 0
0.125 -0.375 0
0.1875 -0.375 0
0.125 -0.3125 0
0.1875 -0.3125 0
0.1875 -0.375 0
0.25 -0.375 0
0.1875 -0.3125 0
0.25 -0.3125 0
0.1875 -0.3125 0
0.25 -0.3125 0
0.1875 -0.25 0
0.25 -0.25 0
0.25 -0.5 0
0.3125 -0.5 0
0.25 -0.4375 0
0.3125 -0.4375 0
0.3125 -0.5 0
0.375 -0.5 0
0.3125 -0.4375 0
0.375 -0.4375 0
0.25 -0.4375 0
0.3125 -0.4375 0
0.25 -0.375 0
0.3125 -0.375 0
0.3125 -0.4375 0
0.375 -0.4375 0
0.3125 -0.375 0
0.375 -0.375 0
0.375 -0.5 0
0.4375 -0.5 0
0.375 -0.4375 0
0.4375 -0.4375 0
0.4375 -0.5 0
0.5 -0.5 0
0.4375 -0.4375 0
0.5 -0.4375 0
0.375 -0.4375 0
0.4375 -0.4375 0
0.375 -0.375 0
0.4375 -0.375 0
0.4375 -0.4375 0
0.5 -0.4375 0
0.4375 -0.375 0
0.5 -0.375 0
0.25 -0.375 0
0.3125 -0.375 0
0.25 -0.3125 0
0.3125 -0.3125 0
0.25 -0.3125 0
0.3125 -0.3125 0
0.25 -0.25 0
0.3125 -0.25 0
-0.3125 0.25 0
-0.25 0.25 0
-0.3125 0.3125 0
-0.25 0.3125 0
-0.3125 0.3125 0
-0.25 0.3125 0
-0.3125 0.375 0
-0.25 0.375 0
-0.5 0.375 0
-0.4375 0.375 0
-0.5 0.4375 0
-0.4375 0.4375 0
-0.4375 0.375 0
-0.375 0.375 0
-0.4375 0.4375 0
-0.375 0.4375 0
-0.5 0.4375 0
-0.4375 0.4375 0
-0.5 0.5 0
-0.4375 0.5 0
-0.4375 0.4375 0
-0.375 0.4375 0
-0.4375 0.5 0
-0.375 0.5 0
-0.375 0.375 0
-0.3125 0.375 0
-0.375 0.4375 0
-0.3125 0.4375 0
-0.3125 0.375 0
-0.25 0.375 0
-0.3125 0.4375 0
-0.25 0.4375 0
-0.375 0.4375 0
-0.3125 0.4375 0
-0.375 0.5 0
-0.3125 0.5 0
-0.3125 0.4375 0
-0.25 0.4375 0
-0.3125 0.5 0
-0.25 0.5 0
-0.25 0.25 0
-0.1875 0.25 0
-0.25 0.3125 0
-0.1875 0.3125 0
-0.25 0.3125 0
-0.1875 0.3125 0
-0.25 0.375 0
-0.1875 0.375 0
-0.1875 0.3125 0
-0.125 0.3125 0
-0.1875 0.375 0
-0.125 0.375 0
-0.25 0.375 0
-0.1875 0.375 0
-0.25 0.4375 0
-0.1875 0.4375 0
-0.1875 0.375 0
-0.125 0.375 0
-0.1875 0.4375 0
-0.125 0.4375 0
-0.25 0.4375 0
-0.1875 0.4375 0
-0.25 0.5 0
-0.1875 0.5 0
-0.1875 0.4375 0
-0.125 0.4375 0
-0.1875 0.5 0
-0.125 0.5 0
0.125 0.25 0
0.1875 0.25 0
0.125 0.3125 0
0.1875 0.3125 0
0.1875 0.25 0
0.25 0.25 0
0.1875 0.3125 0
0.25 0.3125 0
0.125 0.3125 0
0.1875 0.3125 0
0.125 0.375 0
0.1875 0.375 0
0.1875 0.3125 0
0.25 0.3125 0
0.1875 0.375 0
0.25 0.375 0
0.125 0.375 0
0.1875 0.375 0
0.125 0.4375 0
0.1875 0.4375 0
0.1875 0.375 0
0.25 0.375 0
0.1875 0.4375 0
0.25 0.4375 0
0.125 0.4375 0
0.1875 0.4375 0
0.125 0.5 0
0.1875 0.5 0
0.1875 0.4375 0
0.25 0.4375 0
0.1875 0.5 0
0.25 0.5 0
-0.75 -0.5 0
-0.6875 -0.5 0
-0.75 -0.4375 0
-0.6875 -0.4375 0
-0.6875 -0.5 0
-0.625 -0.5 0
-0.6875 -0.4375 0
-0.625 -0.4375 0
-0.75 -0.4375 0
-0.6875 -0.4375 0
-0.75 -0.375 0
-0.6875 -0.375 0
-0.6875 -0.4375 0
-0.625 -0.4375 0
-0.6875 -0.375 0
-0.625 -0.375 0
-0.625 -0.5 0
-0.5625 -0.5 0
-0.625 -0.4375 0
-0.5625 -0.4375 0
-0.5625 -0.5 0
-0.5 -0.5 0
-0.5625 -0.4375 0
-0.5 -0.4375 0
-0.625 -0.4375 0
-0.5625 -0.4375 0
-0.625 -0.375 0
-0.5625 -0.375 0
-0.5625 -0.4375 0
-0.5 -0.4375 0
-0.5625 -0.375 0
-0.5 -0.375 0
-0.75 -0.375 0
-0.6875 -0.375 0
-0.75 -0.3125 0
-0.6875 -0.3125 0
-0.6875 -0.375 0
-0.625 -0.375 0
-0.6875 -0.3125 0
-0.625 -0.3125 0
-0.75 -0.3125 0
-0.6875 -0.3125 0
-0.75 -0.25 0
-0.6875 -0.25 0
-0.875 -0.25 0
-0.8125 -0.25 0
-0.875 -0.1875 0
-0.8125 -0.1875 0
-0.8125 -0.25 0
-0.75 -0.25 0
-0.8125 -0.1875 0
-0.75 -0.1875 0
-0.875 -0.1875 0
-0.8125 -0.1875 0
-0.875 -0.125 0
-0.8125 -0.125 0
-0.8125 -0.1875 0
-0.75 -0.1875 0
-0.8125 -0.125 0
-0.75 -0.125 0
-0.5 -0.5 0
-0.4375 -0.5 0
-0.5 -0.4375 0
-0.4375 -0.4375 0
-0.4375 -0.5 0
-0.375 -0.5 0
-0.4375 -0.4375 0
-0.375 -0.4375 0
-0.5 -0.4375 0
-0.4375 -0.4375 0
-0.5 -0.375 0
-0.4375 -0.375 0
-0.4375 -0.4375 0
-0.375 -0.4375 0
-0.4375 -0.375 0
-0.375 -0.375 0
-0.375 -0.5 0
-0.3125 -0.5 0
-0.375 -0.4375 0
-0.3125 -0.4375 0
-0.3125 -0.5 0
-0.25 -0.5 0
-0.3125 -0.4375 0
-0.25 -0.4375 0
-0.375 -0.4375 0
-0.3125 -0.4375 0
-0.375 -0.375 0
-0.3125 -0.375 0
-0.3125 -0.4375 0
-0.25 -0.4375 0
-0.3125 -0.375 0
-0.25 -0.375 0
-0.3125 -0.375 0
-0.25 -0.375 0
-0.3125 -0.3125 0
-0.25 -0.3125 0
0.25 0.3125 0
0.3125 0.3125 0
0.25 0.375 0
0.3125 0.375 0
0.25 0.375 0
0.3125 0.375 0
0.25 0.4375 0
0.3125 0.4375 0
0.3125 0.375 0
0.375 0.375 0
0.3125 0.4375 0
0.375 0.4375 0
0.25 0.4375 0
0.3125 0.4375 0
0.25 0.5 0
0.3125 0.5 0
0.3125 0.4375 0
0.375 0.4375 0
0.3125 0.5 0
0.375 0.5 0
0.375 0.375 0
0.4375 0.375 0
0.375 0.4375 0
0.4375 0.4375 0
0.4375 0.375 0
0.5 0.375 0
0.4375 0.4375 0
0.5 0.4375 0
0.375 0.4375 0
0.4375 0.4375 0
0.375 0.5 0
0.4375 0.5 0
0.4375 0.4375 0
0.5 0.4375 0
0.4375 0.5 0
0.5 0.5 0
0.75 0.125 0
0.8125 0.125 0
0.75 0.1875 0
0.8125 0.1875 0
0.8125 0.125 0
0.875 0.125 0
0.8125 0.1875 0
0.875 0.1875 0
[...]
POINT_DATA 7132
SCALARS x_displacement double 1
LOOKUP_TABLE default
0 0 0.00131238 0.000864338 0 0 0.000864338 0.000422884 0.000422882 0.000864337 0 0 0.000864337 0.00131238 0 0 0 0.00133604 0 0.00180489 0.00298831 0.00352213 0.00448998 0.00544963 0.00017944 0 0.000494753 0 0 0.000494753 0 0.000179439 0.00544964 0.00448998 0.00352213 0.00298831 0.00180489 0 0.00133604 0 0 0 0.0018505 0.00166781 0 0 0.00166781 0.00131238 0 0 0.000422884 8.12183e-05 0 0 8.12183e-05 -0.000104251 -0.000104253 8.1216e-05 0 0 8.1216e-05 0.000422882 0 0 0.00131238 0.00166781 0 0 0.00166781 0.0018505 0 0 0 0 -0.000104251 -0.000129875 0 0 -0.000129875 -5.30177e-05 -5.30183e-05 -0.000129877 0 0 -0.000129877 -0.000104253 0 0 0 0 0.00177202 0.00187662 0 0 0.00187662 0.0018505 0.00177202 0.00187662 0.00352213 0.00386691 0.00187662 0.0018505 0.00386691 0.00391937 0.00391937 0.00386691 0.0018505 0.00187662 0.00386691 0.00352213 0.00187662 0.00177202 0.0018505 0.00187662 0 0 0.00187662 0.00177202 0 0 0 0 0 0.000850173 0 0 0.000850173 0.00128995 0 0.000850173 0 0.00133604 0.000850173 0.00128995 0.00133604 0.00229947 0 0 0.00128995 0.00157519 0 0 0.00157519 0.00177202 0.00128995 0.00157519 0.00229947 0.00298831 0.00157519 0.00177202 0.00298831 0.00352213 0 0 -5.30177e-05 4.05141e-05 0 0 4.05141e-05 0 -5.30177e-05 4.05141e-05 0.000194768 0.00017944 4.05141e-05 0 0.00017944 0 0 0.000179439 0 4.0514e-05 0.000179439 0.000194767 4.0514e-05 -5.30183e-05 0 4.0514e-05 0 0 4.0514e-05 -5.30183e-05 0 0 0.00352213 0.00298831 0.00177202 0.00157519 0.00298831 0.00229947 0.00157519 0.00128995 0.00177202 0.00157519 0 0 0.00157519 0.00128995 0 0 0.00229947 0.00133604 0.00128995 0.000850173 0.00133604 0 0.000850173 0 0.00128995 0.000850173 0 0 0.000850173 0 0 0 0.00884399 0.0109536 0.0104055 0.0131043 0.0133514 0.013145 0.0156229 0.0158301 0.013145 0.0130516 0.0158301 0.0162592 0.0162592 0.0158301 0.0130516 0.013145 0.0158301 0.015623 0.013145 0.0133514 0.0131043 0.0104055 0.0109536 0.00884399 0.00936642 0.00891963 0.0112458 0.0107263 0.00891963 0.00831247 0.0107263 0.0100275 0.0112458 0.0107263 0.0132957 0.0126846 0.00831247 0.00760741 0.0100275 0.00923167 0.00760741 0.00687009 0.00923167 0.0084193 0.0084193 0.00923167 0.00687008 0.00760741 0.00923167 0.0100275 0.00760741 0.00831247 0.0126846 0.0132957 0.0107263 0.0112458 0.0100275 0.0107263 0.00831247 0.00891963 0.0107263 0.0112458 0.00891963 0.00936642 0.00891589 0.0100632 0.0106924 0.012056 0.0120559 0.0106924 0.0100632 0.00891588 0.0033821 0.00299652 0.00474597 0.00428974 0.00299652 0.002643 0.00428974 0.00380738 0.002643 0.00229264 0.00380738 0.00330946 0.00229264 0.00192628 0.00330946 0.00276808 0.00380738 0.00330946 0.00533653 0.00464671 0.00330946 0.00276808 0.00464671 0.00385677 0.00692038 0.00520814 0.00885352 0.00655015 0.00655015 0.00885353 0.00520814 0.00692038 0.00385677 0.00464672 0.00276808 0.00330946 0.00464672 0.00533653 0.00330946 0.00380738 0.00276808 0.00330946 0.00192628 0.00229264 0.00330946 0.00380738 0.00229264 0.002643 0.00380738 0.00428973 0.002643 0.00299651 0.00428973 0.00474596 0.00299651 0.0033821 0.00962765 0.00960877 0.0115234 0.0115207 0.00960877 0.00936642 0.0115207 0.0112458 0.0115234 0.0115207 0.0136289 0.0136214 0.0115207 0.0112458 0.0136214 0.0132957 0.0136289 0.0136214 0.015924 0.0158619 0.0136214 0.0132957 0.0158619 0.0154568 0.015924 0.0158619 0.0183073 0.0181228 0.0158619 0.0154568 0.0181228 0.0175846 0.00687009 0.006149 0.0084193 0.00766052 0.006149 0.00547427 0.00766052 0.00696852 0.0084193 0.00766052 0.0101079 0.00936249 0.00766052 0.00696852 0.00936249 0.00871723 0.0101079 0.00936249 0.0119223 0.0112558 0.00936249 0.00871723 0.0112558 0.0107643 0.0112558 0.0107643 0.0133514 0.013145 0.00547427 0.00485765 0.00696852 0.00634366 0.00485765 0.00430406 0.00634366 0.00577128 0.00696852 0.00634366 0.00871723 0.00814747 0.00634366 0.00577128 0.00814747 0.00762227 0.00430406 0.00381279 0.00577128 0.00524301 0.00381279 0.0033821 0.00524301 0.00474597 0.00577128 0.00524301 0.00762227 0.0070863 0.00524301 0.00474597 0.0070863 0.00653327 0.00871723 0.00814747 0.0107643 0.01035 0.0107643 0.01035 0.013145 0.0130516 0.0130516 0.013145 0.01035 0.0107643 0.01035 0.0107643 0.00814747 0.00871722 0.00653326 0.00708629 0.00474596 0.005243 0.00708629 0.00762226 0.005243 0.00577127 0.00474596 0.005243 0.0033821 0.00381278 0.005243 0.00577127 0.00381278 0.00430406 0.00762226 0.00814747 0.00577127 0.00634366 0.00814747 0.00871722 0.00634366 0.00696851 0.00577127 0.00634366 0.00430406 0.00485765 0.00634366 0.00696851 0.00485765 0.00547427 0.013145 0.0133514 0.0107643 0.0112558 0.0107643 0.0112558 0.00871722 0.00936249 0.0112558 0.0119223 0.00936249 0.0101079 0.00871722 0.00936249 0.00696851 0.00766051 0.00936249 0.0101079 0.00766051 0.0084193 0.00696851 0.00766051 0.00547427 0.006149 0.00766051 0.0084193 0.006149 0.00687008 0.0175846 0.0181228 0.0154568 0.0158619 0.0181228 0.0183073 0.0158619 0.0159239 0.0154568 0.0158619 0.0132957 0.0136214 0.0158619 0.0159239 0.0136214 0.0136289 0.0132957 0.0136214 0.0112458 0.0115207 0.0136214 0.0136289 0.0115207 0.0115234 0.0112458 0.0115207 0.00936642 0.00960877 0.0115207 0.0115234 0.00960877 0.00962766 0.00452282 0.00546355 0.0053191 0.00645318 0.00546355 0.00633194 0.00645318 0.0074993 0.0053191 0.00645318 0.00628542 0.00765807 0.00645318 0.0074993 0.00765807 0.00891589 0.00633194 0.00713067 0.0074993 0.00846246 0.00713067 0.00786015 0.00846246 0.00934164 0.0074993 0.00846246 0.00891589 0.0100632 0.00846246 0.00934164 0.0100632 0.0111129 0.00628542 0.00765807 0.00745634 0.00914299 0.00765807 0.00891589 0.00914299 0.0106924 0.00745634 0.00914299 0.00884399 0.0109536 0.00438949 0.00663632 0.0050039 0.00767861 0.00663632 0.00884399 0.00767861 0.0104055 0.0050039 0.00767861 0.00555546 0.00863028 0.00767861 0.0104055 0.00863028 0.0118932 0.00786015 0.00850581 0.00934164 0.0101277 0.00850581 0.00904235 0.0101277 0.0107837 0.00934164 0.0101277 0.0111129 0.0120264 0.0101277 0.0107837 0.0120264 0.0127882 0.00904235 0.00942923 0.0107837 0.0112664 0.00942923 0.00962765 0.0112664 0.0115234 0.0107837 0.0112664 0.0127882 0.0133343 0.0112664 0.0115234 0.0133343 0.0136289 0.0133343 0.0136289 0.0156502 0.015924 0.0159239 0.0156502 0.0136289 0.0133343 0.0136289 0.0133343 0.0115234 0.0112664 0.0133343 0.0127882 0.0112664 0.0107837 0.0115234 0.0112664 0.00962766 0.00942924 0.0112664 0.0107837 0.00942924 0.00904237 0.0127882 0.0120264 0.0107837 0.0101277 0.0120264 0.0111129 0.0101277 0.00934165 0.0107837 0.0101277 0.00904237 0.00850582 0.0101277 0.00934165 0.00850582 0.00786015 0.0118932 0.00863029 0.0104055 0.00767862 0.00863029 0.00555546 0.00767862 0.0050039 0.0104055 0.00767862 0.00884399 0.00663632 0.00767862 0.0050039 0.00663632 0.00438949 0.0109536 0.00884399 0.00914298 0.00745634 0.0106924 0.00914298 0.00891588 0.00765806 0.00914298 0.00745634 0.00765806 0.00628542 0.0111129 0.0100632 0.00934165 0.00846246 0.0100632 0.00891588 0.00846246 0.00749929 0.00934165 0.00846246 0.00786015 0.00713067 0.00846246 0.00749929 0.00713067 0.00633194 0.00891588 0.00765806 0.00749929 0.00645317 0.00765806 0.00628542 0.00645317 0.0053191 0.00749929 0.00645317 0.00633194 0.00546355 0.00645317 0.0053191 0.00546355 0.00452282 0.0032577 0.00481101 0.00379189 0.00565918 0.00481101 0.00628542 0.00565918 0.00745634 0.00379189 0.00565918 0.00438949 0.00663632 0.00565918 0.00745634 0.00663632 0.00884399 0.00884399 0.00663632 0.00745634 0.00565918 0.00663632 0.00438949 0.00565918 0.00379189 0.00745634 0.00565918 0.00628542 0.004811 0.00565918 0.00379189 0.004811 0.0032577 0.00192628 0.00152574 0.00276808 0.00216618 0.00152574 0.00108022 0.00216618 0.00151499 0.00276808 0.00216618 0.00385677 0.00298306 0.00385677 0.00298306 0.00522654 0.0039995 0.00522654 0.0039995 0.00692038 0.00520814 0.00204712 0.00105014 0.00269748 0.00135789 0.00105014 0 0.00135789 0 0.00269748 0.00135789 0.00345367 0.00170605 0.00135789 0 0.00170605 0 0 0.00170605 0 0.00135789 0.00170605 0.00345367 0.00135789 0.00269749 0 0.00135789 0 0.00105014 0.00135789 0.00269749 0.00105014 0.00204712 0.00520814 0.00692038 0.00399951 0.00522654 0.00399951 0.00522654 0.00298306 0.00385677 0.00298306 0.00385677 0.00216618 0.00276808 0.00151499 0.00216618 0.00108022 0.00152574 0.00216618 0.00276808 0.00152574 0.00192628 0.00616436 0.005818 0.00767264 0.00728064 0.005818 0.00536023 0.00728064 0.0067533 0.00767264 0.00728064 0.00936642 0.00891963 0.00728064 0.0067533 0.00891963 0.00831247 0.00536023 0.00482539 0.0067533 0.00613649 0.00482539 0.00425157 0.00613649 0.00547914 0.0067533 0.00613649 0.00831247 0.00760741 0.00613649 0.00547914 0.00760741 0.00687009 0.00687008 0.00760741 0.00547914 0.00613649 0.00760741 0.00831247 0.00613649 0.0067533 0.00547914 0.00613649 0.00425157 0.00482539 0.00613649 0.0067533 0.00482539 0.00536023 0.00831247 0.00891963 0.0067533 0.00728063 0.00891963 0.00936642 0.00728063 0.00767264 0.0067533 0.00728063 0.00536023 0.005818 0.00728063 0.00767264 0.005818 0.00616436 0.000805693 0.000669356 0.0012868 0.00103433 0.000669356 0.000494753 0.00103433 0.000736837 0.0012868 0.00103433 0.00192628 0.00152574 0.00103433 0.000736837 0.00152574 0.00108022 0.00108022 0.00152574 0.000736837 0.00103433 0.00152574 0.00192628 0.00103433 0.0012868 0.000736837 0.00103433 0.000494753 0.000669356 0.00103433 0.0012868 0.000669356 0.000805692 0 0.00216308 0 0.0024307 0.00216308 0.00438949 0.0024307 0.0050039 0 0.0024307 0 0.00266154 0.0024307 0.0050039 0.00266154 0.00555546 0 0.00266154 0 0.002804 0.00266154 0.00555546 0.002804 0.00591308 0 0.002804 0 0.00281349 0.002804 0.00591308 0.00281349 0.00595773 0.00595773 0.00281349 0.00591309 0.002804 0.00281349 0 0.002804 0 0.00591309 0.002804 0.00555546 0.00266154 0.002804 0 0.00266154 0 0.00555546 0.00266154 0.0050039 0.0024307 0.00266154 0 0.0024307 0 0.0050039 0.0024307 0.00438949 0.00216308 0.0024307 0 0.00216308 0 0.00345367 0.00170605 0.0042681 0.00207155 0.00170605 0 0.00207155 0 0.0042681 0.00207155 0.00504212 0.00241233 0.00207155 0 0.00241233 0 0.00504212 0.00241233 0.00564838 0.00267566 0.00241233 0 0.00267566 0 0.00564838 0.00267566 0.00595773 0.00281349 0.00267566 0 0.00281349 0 0 0.00281349 0 0.00267566 0.00281349 0.00595773 0.00267566 0.00564838 0 0.00267566 0 0.00241234 0.00267566 0.00564838 0.00241234 0.00504212 0 0.00241234 0 0.00207155 0.00241234 0.00504212 0.00207155 0.0042681 0 0.00207155 0 0.00170605 0.00207155 0.0042681 0.00170605 0.00345367 0.00147169 0.00112217 0.00221792 0.00178899 0.00112217 0.000823377 0.00178899 0.00141808 0.00221792 0.00178899 0.00312277 0.00261888 0.00178899 0.00141808 0.00261888 0.00217724 0.000823377 0.000586048 0.00141808 0.00111348 0.000586048 0.000410379 0.00111348 0.000877905 0.00141808 0.00111348 0.00217724 0.00180572 0.00111348 0.000877905 0.00180572 0.00150538 0.00312277 0.00261888 0.0042012 0.00363137 0.00261888 0.00217724 0.00363137 0.00312594 0.0042012 0.00363137 0.00547427 0.00485765 0.00363137 0.00312594 0.00485765 0.00430406 0.00217724 0.00180572 0.00312594 0.00269059 0.00180572 0.00150538 0.00269059 0.00232363 0.00312594 0.00269059 0.00430406 0.00381279 0.00269059 0.00232363 0.00381279 0.0033821 0.0033821 0.00381278 0.00232363 0.00269059 0.00381278 0.00430406 0.00269059 0.00312594 0.00232363 0.00269059 0.00150538 0.00180572 0.00269059 0.00312594 0.00180572 0.00217723 0.00430406 0.00485765 0.00312594 0.00363137 0.00485765 0.00547427 0.00363137 0.0042012 0.00312594 0.00363137 0.00217723 0.00261887 0.00363137 0.0042012 0.00261887 0.00312277 0.00150538 0.00180572 0.000877902 0.00111348 0.00180572 0.00217723 0.00111348 0.00141807 0.000877902 0.00111348 0.000410376 0.000586044 0.00111348 0.00141807 0.000586044 0.000823373 0.00217723 0.00261887 0.00141807 0.00178899 0.00261887 0.00312277 0.00178899 0.00221791 0.00141807 0.00178899 0.000823373 0.00112216 0.00178899 0.00221791 0.00112216 0.00147169 0 0.00124568 0 0.00143323 0.00124568 0.00241087 0.00143323 0.00279939 0 0.00143323 0 0.0016493 0.00143323 0.00279939 0.0016493 0.0032577 0.00241087 0.00350352 0.00279939 0.00409823 0.00350352 0.00452282 0.00409823 0.0053191 0.00279939 0.00409823 0.0032577 0.00481101 0.00409823 0.0053191 0.00481101 0.00628542 0 0.0016493 0 0.00189546 0.0016493 0.0032577 0.00189546 0.00379189 0 0.00189546 0 0.00216308 0.00189546 0.00379189 0.00216308 0.00438949 0.00438949 0.00216308 0.00379189 0.00189546 0.00216308 0 0.00189546 0 0.00379189 0.00189546 0.0032577 0.0016493 0.00189546 0 0.0016493 0 0.00628542 0.004811 0.0053191 0.00409822 0.004811 0.0032577 0.00409822 0.00279939 0.0053191 0.00409822 0.00452282 0.00350352 0.00409822 0.00279939 0.00350352 0.00241087 0.0032577 0.0016493 0.00279939 0.00143323 0.0016493 0 0.00143323 0 0.00279939 0.00143323 0.00241087 0.00124568 0.00143323 0 0.00124568 0 0.00108022 0.000580115 0.00151499 0.000792402 0.000580115 0 0.000792402 0 0.00151499 0.000792402 0.00204712 0.00105014 0.000792402 0 0.00105014 0 0 0.00105014 0 0.000792403 0.00105014 0.00204712 0.000792403 0.00151499 0 0.000792403 0 0.000580115 0.000792403 0.00151499 0.000580115 0.00108022 0.00352213 0.00369452 0.00448588 0.00474982 0.00369452 0.00386691 0.00474982 0.00495002 0.00448588 0.00474982 0.00544963 0.00585096 0.00474982 0.00495002 0.00585096 0.00616426 0.00386691 0.00389314 0.00495002 0.00508418 0.00389314 0.00391937 0.00508418 0.00510764 0.00495002 0.00508418 0.00616426 0.00636603 0.00508418 0.00510764 0.00636603 0.00644223 0.00544963 0.00585096 0.00657852 0.00709567 0.00585096 0.00616426 0.00709567 0.00751398 0.00657852 0.00709567 0.00786015 0.00850581 0.00709567 0.00751398 0.00850581 0.00904235 0.00616426 0.00636603 0.00751398 0.00780549 0.00636603 0.00644223 0.00780549 0.00793954 0.00751398 0.00780549 0.00904235 0.00942923 0.00780549 0.00793954 0.00942923 0.00962765 0.00391937 0.00383458 0.00510764 0.00502681 0.00383458 0.00365258 0.00502681 0.00483034 0.00510764 0.00502681 0.00644223 0.00637539 0.00502681 0.00483034 0.00637539 0.00616436 0.00365258 0.00338687 0.00483034 0.00452511 0.00338687 0.00305491 0.00452511 0.00413063 0.00483034 0.00452511 0.00616436 0.005818 0.00452511 0.00413063 0.005818 0.00536023 0.00644223 0.00637539 0.00793954 0.00789701 0.00637539 0.00616436 0.00789701 0.00767264 0.00793954 0.00789701 0.00962765 0.00960877 0.00789701 0.00767264 0.00960877 0.00936642 0.00131238 0.00108836 0.00211741 0.00181739 0.00108836 0.000864338 0.00181739 0.00149734 0.00211741 0.00181739 0.00305491 0.00267398 0.00181739 0.00149734 0.00267398 0.00226802 0.000864338 0.000643611 0.00149734 0.00117752 0.000643611 0.000422884 0.00117752 0.000877333 0.00149734 0.00117752 0.00226802 0.00186014 0.00117752 0.000877333 0.00186014 0.00147169 0.00305491 0.00267398 0.00413063 0.00367363 0.00267398 0.00226802 0.00367363 0.0031835 0.00413063 0.00367363 0.00536023 0.00482539 0.00367363 0.0031835 0.00482539 0.00425157 0.00226802 0.00186014 0.0031835 0.00268961 0.00186014 0.00147169 0.00268961 0.00221792 0.0031835 0.00268961 0.00425157 0.00367427 0.00268961 0.00221792 0.00367427 0.00312277 0.00425157 0.00367427 0.00547914 0.00482384 0.00367427 0.00312277 0.00482384 0.0042012 0.00547914 0.00482384 0.00687009 0.006149 0.00482384 0.0042012 0.006149 0.00547427 0.00547427 0.006149 0.0042012 0.00482384 0.006149 0.00687008 0.00482384 0.00547914 0.0042012 0.00482384 0.00312277 0.00367426 0.00482384 0.00547914 0.00367426 0.00425157 0.00312277 0.00367426 0.00221791 0.00268961 0.00367426 0.00425157 0.00268961 0.0031835 0.00221791 0.00268961 0.00147169 0.00186013 0.00268961 0.0031835 0.00186013 0.00226801 0.00425157 0.00482539 0.0031835 0.00367363 0.00482539 0.00536023 0.00367363 0.00413063 0.0031835 0.00367363 0.00226801 0.00267398 0.00367363 0.00413063 0.00267398 0.00305491 0.00147169 0.00186013 0.00087733 0.00117752 0.00186013 0.00226801 0.00117752 0.00149734 0.00087733 0.00117752 0.000422882 0.000643609 0.00117752 0.00149734 0.000643609 0.000864337 0.00226801 0.00267398 0.00149734 0.00181739 0.00267398 0.00305491 0.00181739 0.0021174 0.00149734 0.00181739 0.000864337 0.00108836 0.00181739 0.0021174 0.00108836 0.00131238 0.00936642 0.00960877 0.00767264 0.00789701 0.00960877 0.00962766 0.00789701 0.00793955 0.00767264 0.00789701 0.00616436 0.00637539 0.00789701 0.00793955 0.00637539 0.00644224 0.00536023 0.005818 0.00413063 0.00452511 0.005818 0.00616436 0.00452511 0.00483034 0.00413063 0.00452511 0.00305491 0.00338687 0.00452511 0.00483034 0.00338687 0.00365258 0.00616436 0.00637539 0.00483034 0.00502682 0.00637539 0.00644224 0.00502682 0.00510765 0.00483034 0.00502682 0.00365258 0.00383458 0.00502682 0.00510765 0.00383458 0.00391937 0.00962766 0.00942924 0.00793955 0.0078055 0.00942924 0.00904237 0.0078055 0.00751399 0.00793955 0.0078055 0.00644224 0.00636603 0.0078055 0.00751399 0.00636603 0.00616426 0.00904237 0.00850582 0.00751399 0.00709567 0.00850582 0.00786015 0.00709567 0.00657853 0.00751399 0.00709567 0.00616426 0.00585097 0.00709567 0.00657853 0.00585097 0.00544964 0.00644224 0.00636603 0.00510765 0.00508418 0.00636603 0.00616426 0.00508418 0.00495003 0.00510765 0.00508418 0.00391937 0.00389314 0.00508418 0.00495003 0.00389314 0.00386691 0.00616426 0.00585097 0.00495003 0.00474982 0.00585097 0.00544964 0.00474982 0.00448588 0.00495003 0.00474982 0.00386691 0.00369452 0.00474982 0.00448588 0.00369452 0.00352213 0.00133604 0.00181775 0.00157046 0.0022078 0.00181775 0.00229947 0.0022078 0.00276514 0.00157046 0.0022078 0.00180489 0.00258519 0.0022078 0.00276514 0.00258519 0.00328681 0 0.000902444 0 0.00108345 0.000902444 0.00180489 0.00108345 0.00207226 0 0.00108345 0 0.00124568 0.00108345 0.00207226 0.00124568 0.00241087 0.00180489 0.00258519 0.00207226 0.00300828 0.00258519 0.00328681 0.00300828 0.00385787 0.00207226 0.00300828 0.00241087 0.00350352 0.00300828 0.00385787 0.00350352 0.00452282 0.00229947 0.00264389 0.00276514 0.00328108 0.00264389 0.00298831 0.00328108 0.00373914 0.00276514 0.00328108 0.00328681 0.00392129 0.00328108 0.00373914 0.00392129 0.00448998 0.00328681 0.00392129 0.00385787 0.00463287 0.00392129 0.00448998 0.00463287 0.00534127 0.00385787 0.00463287 0.00452282 0.00546355 0.00463287 0.00534127 0.00546355 0.00633194 0.00448998 0.0049698 0.00534127 0.0059941 0.0049698 0.00544963 0.0059941 0.00657852 0.00534127 0.0059941 0.00633194 0.00713067 0.0059941 0.00657852 0.00713067 0.00786015 0.000410379 0.000296071 0.000877905 0.000706665 0.000296071 0.000232796 0.000706665 0.000589658 0.000877905 0.000706665 0.00150538 0.00127011 0.000706665 0.000589658 0.00127011 0.00108711 0.000232796 0.000209376 0.000589658 0.000509691 0.000209376 0.000194768 0.000509691 0.000446643 0.000589658 0.000509691 0.00108711 0.0009383 0.000509691 0.000446643 0.0009383 0.000805693 0.00150538 0.00127011 0.00232363 0.00201759 0.00127011 0.00108711 0.00201759 0.00175619 0.00232363 0.00201759 0.0033821 0.00299652 0.00201759 0.00175619 0.00299652 0.002643 0.00108711 0.0009383 0.00175619 0.00151999 0.0009383 0.000805693 0.00151999 0.0012868 0.00175619 0.00151999 0.002643 0.00229264 0.00151999 0.0012868 0.00229264 0.00192628 0.000194768 0.000187104 0.000446643 0.000396414 0.000187104 0.00017944 0.000396414 0.000337096 0.000446643 0.000396414 0.000805693 0.000669356 0.000396414 0.000337096 0.000669356 0.000494753 0.000494753 0.000247377 0.000736837 0.000408927 0.000247377 0 0.000408927 0 0.000736837 0.000408927 0.00108022 0.000580115 0.000408927 0 0.000580115 0 0 0.000580115 0 0.000408927 0.000580115 0.00108022 0.000408927 0.000736837 0 0.000408927 0 0.000247377 0.000408927 0.000736837 0.000247377 0.000494753 0.000494753 0.000669356 0.000337096 0.000396413 0.000669356 0.000805692 0.000396413 0.000446642 0.000337096 0.000396413 0.000179439 0.000187103 0.000396413 0.000446642 0.000187103 0.000194767 0.00192628 0.00229264 0.0012868 0.00151999 0.00229264 0.002643 0.00151999 0.00175618 0.0012868 0.00151999 0.000805692 0.000938298 0.00151999 0.00175618 0.000938298 0.00108711 0.002643 0.00299651 0.00175618 0.00201759 0.00299651 0.0033821 0.00201759 0.00232363 0.00175618 0.00201759 0.00108711 0.00127011 0.00201759 0.00232363 0.00127011 0.00150538 0.000805692 0.000938298 0.000446642 0.000509689