# vtk DataFile Version 3.0
#This file was generated by the deal.II library on 2020/5/27 at 9:04:57
ASCII
DATASET UNSTRUCTURED_GRID

POINTS 3736 double
0 0 0
0.0625 0 0
0 0.0625 0
0.0625 0.0625 0
0.0625 0 0
0.125 0 0
0.0625 0.0625 0
0.125 0.0625 0
0.125 0 0
0.1875 0 0
0.125 0.0625 0
0.1875 0.0625 0
0.1875 0 0
0.25 0 0
0.1875 0.0625 0
0.25 0.0625 0
0.25 0 0
0.3125 0 0
0.25 0.0625 0
0.3125 0.0625 0
0.3125 0 0
0.375 0 0
0.3125 0.0625 0
0.375 0.0625 0
0.375 0 0
0.4375 0 0
0.375 0.0625 0
0.4375 0.0625 0
0.75 0 0
0.8125 0 0
0.75 0.0625 0
0.8125 0.0625 0
0.8125 0 0
0.875 0 0
0.8125 0.0625 0
0.875 0.0625 0
0.875 0 0
0.9375 0 0
0.875 0.0625 0
0.9375 0.0625 0
0.9375 0 0
1 0 0
0.9375 0.0625 0
1 0.0625 0
0 0.0625 0
0.0625 0.0625 0
0 0.125 0
0.0625 0.125 0
0.0625 0.0625 0
0.125 0.0625 0
0.0625 0.125 0
0.125 0.125 0
0.125 0.0625 0
0.1875 0.0625 0
0.125 0.125 0
0.1875 0.125 0
0.1875 0.0625 0
0.25 0.0625 0
0.1875 0.125 0
0.25 0.125 0
0.25 0.0625 0
0.3125 0.0625 0
0.25 0.125 0
0.3125 0.125 0
0.3125 0.0625 0
0.375 0.0625 0
0.3125 0.125 0
0.375 0.125 0
0.75 0.0625 0
0.8125 0.0625 0
0.75 0.125 0
0.8125 0.125 0
0.8125 0.0625 0
0.875 0.0625 0
0.8125 0.125 0
0.875 0.125 0
0.875 0.0625 0
0.9375 0.0625 0
0.875 0.125 0
0.9375 0.125 0
0.9375 0.0625 0
1 0.0625 0
0.9375 0.125 0
1 0.125 0
0 0.125 0
0.0625 0.125 0
0 0.1875 0
0.0625 0.1875 0
0.0625 0.125 0
0.125 0.125 0
0.0625 0.1875 0
0.125 0.1875 0
0.125 0.125 0
0.1875 0.125 0
0.125 0.1875 0
0.1875 0.1875 0
0.1875 0.125 0
0.25 0.125 0
0.1875 0.1875 0
0.25 0.1875 0
0.25 0.125 0
0.3125 0.125 0
0.25 0.1875 0
0.3125 0.1875 0
0.3125 0.125 0
0.375 0.125 0
0.3125 0.1875 0
0.375 0.1875 0
0.8125 0.125 0
0.875 0.125 0
0.8125 0.1875 0
0.875 0.1875 0
0.875 0.125 0
0.9375 0.125 0
0.875 0.1875 0
0.9375 0.1875 0
0.9375 0.125 0
1 0.125 0
0.9375 0.1875 0
1 0.1875 0
0 0.1875 0
0.0625 0.1875 0
0 0.25 0
0.0625 0.25 0
0.0625 0.1875 0
0.125 0.1875 0
0.0625 0.25 0
0.125 0.25 0
0.125 0.1875 0
0.1875 0.1875 0
0.125 0.25 0
0.1875 0.25 0
0.1875 0.1875 0
0.25 0.1875 0
0.1875 0.25 0
0.25 0.25 0
0.25 0.1875 0
0.3125 0.1875 0
0.25 0.25 0
0.3125 0.25 0
0.8125 0.1875 0
0.875 0.1875 0
0.8125 0.25 0
0.875 0.25 0
0.875 0.1875 0
0.9375 0.1875 0
0.875 0.25 0
0.9375 0.25 0
0.9375 0.1875 0
1 0.1875 0
0.9375 0.25 0
1 0.25 0
0 0.25 0
0.0625 0.25 0
0 0.3125 0
0.0625 0.3125 0
0.0625 0.25 0
0.125 0.25 0
0.0625 0.3125 0
0.125 0.3125 0
0.125 0.25 0
0.1875 0.25 0
0.125 0.3125 0
0.1875 0.3125 0
0.1875 0.25 0
0.25 0.25 0
0.1875 0.3125 0
0.25 0.3125 0
0.8125 0.25 0
0.875 0.25 0
0.8125 0.3125 0
0.875 0.3125 0
0.875 0.25 0
0.9375 0.25 0
0.875 0.3125 0
0.9375 0.3125 0
0.9375 0.25 0
1 0.25 0
0.9375 0.3125 0
1 0.3125 0
0 0.3125 0
0.0625 0.3125 0
0 0.375 0
0.0625 0.375 0
0.0625 0.3125 0
0.125 0.3125 0
0.0625 0.375 0
0.125 0.375 0
0.125 0.3125 0
0.1875 0.3125 0
0.125 0.375 0
0.1875 0.375 0
0.75 0.3125 0
0.8125 0.3125 0
0.75 0.375 0
0.8125 0.375 0
0.8125 0.3125 0
0.875 0.3125 0
0.8125 0.375 0
0.875 0.375 0
0.875 0.3125 0
0.9375 0.3125 0
0.875 0.375 0
0.9375 0.375 0
0.9375 0.3125 0
1 0.3125 0
0.9375 0.375 0
1 0.375 0
0 0.375 0
0.0625 0.375 0
0 0.4375 0
0.0625 0.4375 0
0.75 0.375 0
0.8125 0.375 0
0.75 0.4375 0
0.8125 0.4375 0
0.8125 0.375 0
0.875 0.375 0
0.8125 0.4375 0
0.875 0.4375 0
0.875 0.375 0
0.9375 0.375 0
0.875 0.4375 0
0.9375 0.4375 0
0.9375 0.375 0
1 0.375 0
0.9375 0.4375 0
1 0.4375 0
0.75 0.4375 0
0.8125 0.4375 0
0.75 0.5 0
0.8125 0.5 0
0.8125 0.4375 0
0.875 0.4375 0
0.8125 0.5 0
0.875 0.5 0
0.875 0.4375 0
0.9375 0.4375 0
0.875 0.5 0
0.9375 0.5 0
0.9375 0.4375 0
1 0.4375 0
0.9375 0.5 0
1 0.5 0
0.6875 0.5 0
0.75 0.5 0
0.6875 0.5625 0
0.75 0.5625 0
0.75 0.5 0
0.8125 0.5 0
0.75 0.5625 0
0.8125 0.5625 0
0.8125 0.5 0
0.875 0.5 0
0.8125 0.5625 0
0.875 0.5625 0
0.875 0.5 0
0.9375 0.5 0
0.875 0.5625 0
0.9375 0.5625 0
0.9375 0.5 0
1 0.5 0
0.9375 0.5625 0
1 0.5625 0
0.625 0.5625 0
0.6875 0.5625 0
0.625 0.625 0
0.6875 0.625 0
0.6875 0.5625 0
0.75 0.5625 0
0.6875 0.625 0
0.75 0.625 0
0.75 0.5625 0
0.8125 0.5625 0
0.75 0.625 0
0.8125 0.625 0
0.8125 0.5625 0
0.875 0.5625 0
0.8125 0.625 0
0.875 0.625 0
0.875 0.5625 0
0.9375 0.5625 0
0.875 0.625 0
0.9375 0.625 0
0.9375 0.5625 0
1 0.5625 0
0.9375 0.625 0
1 0.625 0
0.5625 0.625 0
0.625 0.625 0
0.5625 0.6875 0
0.625 0.6875 0
0.625 0.625 0
0.6875 0.625 0
0.625 0.6875 0
0.6875 0.6875 0
0.6875 0.625 0
0.75 0.625 0
0.6875 0.6875 0
0.75 0.6875 0
0.75 0.625 0
0.8125 0.625 0
0.75 0.6875 0
0.8125 0.6875 0
0.8125 0.625 0
0.875 0.625 0
0.8125 0.6875 0
0.875 0.6875 0
0.875 0.625 0
0.9375 0.625 0
0.875 0.6875 0
0.9375 0.6875 0
0.9375 0.625 0
1 0.625 0
0.9375 0.6875 0
1 0.6875 0
0.5 0.6875 0
0.5625 0.6875 0
0.5 0.75 0
0.5625 0.75 0
0.5625 0.6875 0
0.625 0.6875 0
0.5625 0.75 0
0.625 0.75 0
0.625 0.6875 0
0.6875 0.6875 0
0.625 0.75 0
0.6875 0.75 0
0.6875 0.6875 0
0.75 0.6875 0
0.6875 0.75 0
0.75 0.75 0
0.75 0.6875 0
0.8125 0.6875 0
0.75 0.75 0
0.8125 0.75 0
0.8125 0.6875 0
0.875 0.6875 0
0.8125 0.75 0
0.875 0.75 0
0.875 0.6875 0
0.9375 0.6875 0
0.875 0.75 0
0.9375 0.75 0
0.9375 0.6875 0
1 0.6875 0
0.9375 0.75 0
1 0.75 0
0 0.75 0
0.0625 0.75 0
0 0.8125 0
0.0625 0.8125 0
0.0625 0.75 0
0.125 0.75 0
0.0625 0.8125 0
0.125 0.8125 0
0.3125 0.75 0
0.375 0.75 0
0.3125 0.8125 0
0.375 0.8125 0
0.375 0.75 0
0.4375 0.75 0
0.375 0.8125 0
0.4375 0.8125 0
0.4375 0.75 0
0.5 0.75 0
0.4375 0.8125 0
0.5 0.8125 0
0.5 0.75 0
0.5625 0.75 0
0.5 0.8125 0
0.5625 0.8125 0
0.5625 0.75 0
0.625 0.75 0
0.5625 0.8125 0
0.625 0.8125 0
0.625 0.75 0
0.6875 0.75 0
0.625 0.8125 0
0.6875 0.8125 0
0.6875 0.75 0
0.75 0.75 0
0.6875 0.8125 0
0.75 0.8125 0
0.75 0.75 0
0.8125 0.75 0
0.75 0.8125 0
0.8125 0.8125 0
0.8125 0.75 0
0.875 0.75 0
0.8125 0.8125 0
0.875 0.8125 0
0.875 0.75 0
0.9375 0.75 0
0.875 0.8125 0
0.9375 0.8125 0
0.9375 0.75 0
1 0.75 0
0.9375 0.8125 0
1 0.8125 0
0 0.8125 0
0.0625 0.8125 0
0 0.875 0
0.0625 0.875 0
0.0625 0.8125 0
0.125 0.8125 0
0.0625 0.875 0
0.125 0.875 0
0.125 0.8125 0
0.1875 0.8125 0
0.125 0.875 0
0.1875 0.875 0
0.1875 0.8125 0
0.25 0.8125 0
0.1875 0.875 0
0.25 0.875 0
0.25 0.8125 0
0.3125 0.8125 0
0.25 0.875 0
0.3125 0.875 0
0.3125 0.8125 0
0.375 0.8125 0
0.3125 0.875 0
0.375 0.875 0
0.375 0.8125 0
0.4375 0.8125 0
0.375 0.875 0
0.4375 0.875 0
0.4375 0.8125 0
0.5 0.8125 0
0.4375 0.875 0
0.5 0.875 0
0.5 0.8125 0
0.5625 0.8125 0
0.5 0.875 0
0.5625 0.875 0
0.5625 0.8125 0
0.625 0.8125 0
0.5625 0.875 0
0.625 0.875 0
0.625 0.8125 0
0.6875 0.8125 0
0.625 0.875 0
0.6875 0.875 0
0.6875 0.8125 0
0.75 0.8125 0
0.6875 0.875 0
0.75 0.875 0
0.75 0.8125 0
0.8125 0.8125 0
0.75 0.875 0
0.8125 0.875 0
0.8125 0.8125 0
0.875 0.8125 0
0.8125 0.875 0
0.875 0.875 0
0.875 0.8125 0
0.9375 0.8125 0
0.875 0.875 0
0.9375 0.875 0
0.9375 0.8125 0
1 0.8125 0
0.9375 0.875 0
1 0.875 0
0 0.875 0
0.0625 0.875 0
0 0.9375 0
0.0625 0.9375 0
0.0625 0.875 0
0.125 0.875 0
0.0625 0.9375 0
0.125 0.9375 0
0.125 0.875 0
0.1875 0.875 0
0.125 0.9375 0
0.1875 0.9375 0
0.1875 0.875 0
0.25 0.875 0
0.1875 0.9375 0
0.25 0.9375 0
0.25 0.875 0
0.3125 0.875 0
0.25 0.9375 0
0.3125 0.9375 0
0.3125 0.875 0
0.375 0.875 0
0.3125 0.9375 0
0.375 0.9375 0
0.375 0.875 0
0.4375 0.875 0
0.375 0.9375 0
0.4375 0.9375 0
0.4375 0.875 0
0.5 0.875 0
0.4375 0.9375 0
0.5 0.9375 0
0.5 0.875 0
0.5625 0.875 0
0.5 0.9375 0
0.5625 0.9375 0
0.5625 0.875 0
0.625 0.875 0
0.5625 0.9375 0
0.625 0.9375 0
0.625 0.875 0
0.6875 0.875 0
0.625 0.9375 0
0.6875 0.9375 0
0.6875 0.875 0
0.75 0.875 0
0.6875 0.9375 0
0.75 0.9375 0
0.75 0.875 0
0.8125 0.875 0
0.75 0.9375 0
0.8125 0.9375 0
0.8125 0.875 0
0.875 0.875 0
0.8125 0.9375 0
0.875 0.9375 0
0.875 0.875 0
0.9375 0.875 0
0.875 0.9375 0
0.9375 0.9375 0
0.9375 0.875 0
1 0.875 0
0.9375 0.9375 0
1 0.9375 0
0 0.9375 0
0.0625 0.9375 0
0 1 0
0.0625 1 0
0.0625 0.9375 0
0.125 0.9375 0
0.0625 1 0
0.125 1 0
0.125 0.9375 0
0.1875 0.9375 0
0.125 1 0
0.1875 1 0
0.1875 0.9375 0
0.25 0.9375 0
0.1875 1 0
0.25 1 0
0.25 0.9375 0
0.3125 0.9375 0
0.25 1 0
0.3125 1 0
0.3125 0.9375 0
0.375 0.9375 0
0.3125 1 0
0.375 1 0
0.375 0.9375 0
0.4375 0.9375 0
0.375 1 0
0.4375 1 0
0.4375 0.9375 0
0.5 0.9375 0
0.4375 1 0
0.5 1 0
0.5 0.9375 0
0.5625 0.9375 0
0.5 1 0
0.5625 1 0
0.5625 0.9375 0
0.625 0.9375 0
0.5625 1 0
0.625 1 0
0.625 0.9375 0
0.6875 0.9375 0
0.625 1 0
0.6875 1 0
0.6875 0.9375 0
0.75 0.9375 0
0.6875 1 0
0.75 1 0
0.75 0.9375 0
0.8125 0.9375 0
0.75 1 0
0.8125 1 0
0.8125 0.9375 0
0.875 0.9375 0
0.8125 1 0
0.875 1 0
0.875 0.9375 0
0.9375 0.9375 0
0.875 1 0
0.9375 1 0
0.9375 0.9375 0
1 0.9375 0
0.9375 1 0
1 1 0
0.5 0 0
0.53125 0 0
0.5 0.03125 0
0.53125 0.03125 0
0.53125 0 0
0.5625 0 0
0.53125 0.03125 0
0.5625 0.03125 0
0.5 0.03125 0
0.53125 0.03125 0
0.5 0.0625 0
0.53125 0.0625 0
0.53125 0.03125 0
0.5625 0.03125 0
0.53125 0.0625 0
0.5625 0.0625 0
0.5625 0 0
0.59375 0 0
0.5625 0.03125 0
0.59375 0.03125 0
0.59375 0 0
0.625 0 0
0.59375 0.03125 0
0.625 0.03125 0
0.5625 0.03125 0
0.59375 0.03125 0
0.5625 0.0625 0
0.59375 0.0625 0
0.65625 0 0
0.6875 0 0
0.65625 0.03125 0
0.6875 0.03125 0
0.6875 0 0
0.71875 0 0
0.6875 0.03125 0
0.71875 0.03125 0
0.71875 0 0
0.75 0 0
0.71875 0.03125 0
0.75 0.03125 0
0.6875 0.03125 0
0.71875 0.03125 0
0.6875 0.0625 0
0.71875 0.0625 0
0.71875 0.03125 0
0.75 0.03125 0
0.71875 0.0625 0
0.75 0.0625 0
0.4375 0.0625 0
0.46875 0.0625 0
0.4375 0.09375 0
0.46875 0.09375 0
0.46875 0.0625 0
0.5 0.0625 0
0.46875 0.09375 0
0.5 0.09375 0
0.4375 0.09375 0
0.46875 0.09375 0
0.4375 0.125 0
0.46875 0.125 0
0.46875 0.09375 0
0.5 0.09375 0
0.46875 0.125 0
0.5 0.125 0
0.5 0.0625 0
0.53125 0.0625 0
0.5 0.09375 0
0.53125 0.09375 0
0.53125 0.0625 0
0.5625 0.0625 0
0.53125 0.09375 0
0.5625 0.09375 0
0.5 0.09375 0
0.53125 0.09375 0
0.5 0.125 0
0.53125 0.125 0
0.53125 0.09375 0
0.5625 0.09375 0
0.53125 0.125 0
0.5625 0.125 0
0.5625 0.0625 0
0.59375 0.0625 0
0.5625 0.09375 0
0.59375 0.09375 0
0.5625 0.09375 0
0.59375 0.09375 0
0.5625 0.125 0
0.59375 0.125 0
0.65625 0.09375 0
0.6875 0.09375 0
0.65625 0.125 0
0.6875 0.125 0
0.6875 0.0625 0
0.71875 0.0625 0
0.6875 0.09375 0
0.71875 0.09375 0
0.71875 0.0625 0
0.75 0.0625 0
0.71875 0.09375 0
0.75 0.09375 0
0.6875 0.09375 0
0.71875 0.09375 0
[...]
POINT_DATA 3736
SCALARS solution double 1
LOOKUP_TABLE default
-1.56921 -1.56906 -1.56906 -0.966002 -1.56906 -1.56887 -0.966002 -0.363732 -1.56887 -1.56861 -0.363732 0.226064 -1.56861 -1.56827 0.226064 0.772222 -1.56827 -1.5678 0.772222 1.23008 -1.5678 -1.56712 1.23008 1.62587 -1.56712 -1.56603 1.62587 1.74411 1.56095 1.5647 2.30249 2.19646 1.5647 1.56638 2.19646 2.03876 1.56638 1.56733 2.03876 1.81763 1.56733 1.56795 1.81763 1.56799 -1.56906 -0.966002 -1.56887 -0.363732 -0.966002 -0.363732 -0.363732 0.851245 -0.363732 0.226064 0.851245 2.06487 0.226064 0.772222 2.06487 3.2286 0.772222 1.23008 3.2286 4.26669 1.23008 1.62587 4.26669 5.47795 2.30249 2.19646 3.36662 3.07361 2.19646 2.03876 3.07361 2.58779 2.03876 1.81763 2.58779 2.09657 1.81763 1.56799 2.09657 1.56805 -1.56887 -0.363732 -1.56861 0.226064 -0.363732 0.851245 0.226064 2.06487 0.851245 2.06487 2.06487 3.97398 2.06487 3.2286 3.97398 5.95041 3.2286 4.26669 5.95041 8.31835 4.26669 5.47795 8.31835 10.4794 3.07361 2.58779 4.24704 3.24713 2.58779 2.09657 3.24713 2.42006 2.09657 1.56805 2.42006 1.56814 -1.56861 0.226064 -1.56827 0.772222 0.226064 2.06487 0.772222 3.2286 2.06487 3.97398 3.2286 5.95041 3.97398 5.95041 5.95041 9.60889 5.95041 8.31835 9.60889 14.2278 4.24704 3.24713 5.50079 4.00667 3.24713 2.42006 4.00667 2.78721 2.42006 1.56814 2.78721 1.56825 -1.56827 0.772222 -1.5678 1.23008 0.772222 3.2286 1.23008 4.26669 3.2286 5.95041 4.26669 8.31835 5.95041 9.60889 8.31835 14.2278 5.50079 4.00667 6.92574 4.8509 4.00667 2.78721 4.8509 3.17309 2.78721 1.56825 3.17309 1.56836 -1.5678 1.23008 -1.56712 1.62587 1.23008 4.26669 1.62587 5.47795 4.26669 8.31835 5.47795 10.4794 9.97114 6.92574 11.8129 8.01392 6.92574 4.8509 8.01392 5.57966 4.8509 3.17309 5.57966 3.50893 3.17309 1.56836 3.50893 1.56849 -1.56712 1.62587 -1.56603 1.74411 11.8129 8.01392 13.1379 8.70769 8.01392 5.57966 8.70769 6.03681 5.57966 3.50893 6.03681 3.73227 3.50893 1.56849 3.73227 1.56861 13.1379 8.70769 13.0032 8.97489 8.70769 6.03681 8.97489 6.22105 6.03681 3.73227 6.22105 3.8235 3.73227 1.56861 3.8235 1.56874 19.2073 13.0032 16.4723 11.9262 13.0032 8.97489 11.9262 8.749 8.97489 6.22105 8.749 6.1185 6.22105 3.8235 6.1185 3.77955 3.8235 1.56874 3.77955 1.56886 23.0575 16.4723 17.8479 13.7416 16.4723 11.9262 13.7416 10.7094 11.9262 8.749 10.7094 8.08304 8.749 6.1185 8.08304 5.75098 6.1185 3.77955 5.75098 3.61246 3.77955 1.56886 3.61246 1.56897 23.0575 17.8479 16.4723 13.7416 17.8479 13.7416 13.7416 11.4479 13.7416 10.7094 11.4479 9.23224 10.7094 8.08304 9.23224 7.14355 8.08304 5.75098 7.14355 5.19264 5.75098 3.61246 5.19264 3.3514 3.61246 1.56897 3.3514 1.56908 19.2073 16.4723 13.0032 11.9262 16.4723 13.7416 11.9262 10.7094 13.7416 11.4479 10.7094 9.23224 11.4479 9.23224 9.23224 7.64896 9.23224 7.14355 7.64896 6.06292 7.14355 5.19264 6.06292 4.52164 5.19264 3.3514 4.52164 3.03026 3.3514 1.56908 3.03026 1.56918 1.56095 2.30249 1.5647 2.19646 2.30249 3.36662 2.19646 3.07361 9.97114 11.8129 6.92574 8.01392 11.8129 13.1379 8.01392 8.70769 13.1379 13.0032 8.70769 8.97489 13.0032 11.9262 8.97489 8.749 11.9262 10.7094 8.749 8.08304 10.7094 9.23224 8.08304 7.14355 9.23224 7.64896 7.14355 6.06292 7.64896 6.06292 6.06292 4.93117 6.06292 4.52164 4.93117 3.79684 4.52164 3.03026 3.79684 2.67709 3.03026 1.56918 2.67709 1.56928 1.5647 2.19646 1.56638 2.03876 2.19646 3.07361 2.03876 2.58779 3.07361 4.24704 2.58779 3.24713 4.24704 5.50079 3.24713 4.00667 5.50079 6.92574 4.00667 4.8509 6.92574 8.01392 4.8509 5.57966 8.01392 8.70769 5.57966 6.03681 8.70769 8.97489 6.03681 6.22105 8.97489 8.749 6.22105 6.1185 8.749 8.08304 6.1185 5.75098 8.08304 7.14355 5.75098 5.19264 7.14355 6.06292 5.19264 4.52164 6.06292 4.93117 4.52164 3.79684 4.93117 3.79684 3.79684 3.0542 3.79684 2.67709 3.0542 2.31046 2.67709 1.56928 2.31046 1.56937 1.56638 2.03876 1.56733 1.81763 2.03876 2.58779 1.81763 2.09657 2.58779 3.24713 2.09657 2.42006 3.24713 4.00667 2.42006 2.78721 4.00667 4.8509 2.78721 3.17309 4.8509 5.57966 3.17309 3.50893 5.57966 6.03681 3.50893 3.73227 6.03681 6.22105 3.73227 3.8235 6.22105 6.1185 3.8235 3.77955 6.1185 5.75098 3.77955 3.61246 5.75098 5.19264 3.61246 3.3514 5.19264 4.52164 3.3514 3.03026 4.52164 3.79684 3.03026 2.67709 3.79684 3.0542 2.67709 2.31046 3.0542 2.31046 2.31046 1.94009 2.31046 1.56937 1.94009 1.56945 1.56733 1.81763 1.56795 1.56799 1.81763 2.09657 1.56799 1.56805 2.09657 2.42006 1.56805 1.56814 2.42006 2.78721 1.56814 1.56825 2.78721 3.17309 1.56825 1.56836 3.17309 3.50893 1.56836 1.56849 3.50893 3.73227 1.56849 1.56861 3.73227 3.8235 1.56861 1.56874 3.8235 3.77955 1.56874 1.56886 3.77955 3.61246 1.56886 1.56897 3.61246 3.3514 1.56897 1.56908 3.3514 3.03026 1.56908 1.56918 3.03026 2.67709 1.56918 1.56928 2.67709 2.31046 1.56928 1.56937 2.31046 1.94009 1.56937 1.56945 1.94009 1.56945 1.56945 1.56952 -1.56403 -1.56222 -0.233104 -0.471126 -1.56222 -1.5591 -0.471126 -0.70296 -0.233104 -0.471126 1.14325 0.618585 -0.471126 -0.70296 0.618585 0.0585038 -1.5591 -1.55239 -0.70296 -0.811638 -1.55239 -1.52763 -0.811638 0.526141 -0.70296 -0.811638 0.0585038 -0.593631 1.44671 1.54529 4.40295 2.17255 1.54529 1.55659 2.17255 1.9836 1.55659 1.56095 1.9836 1.95907 2.17255 1.9836 2.24549 2.33371 1.9836 1.95907 2.33371 2.30249 1.74411 1.58191 3.98885 3.33548 1.58191 1.14325 3.33548 2.60003 3.98885 3.33548 5.86491 5.18328 3.33548 2.60003 5.18328 4.19868 1.14325 0.618585 2.60003 1.73385 0.618585 0.0585038 1.73385 0.760053 2.60003 1.73385 4.19868 2.92632 1.73385 0.760053 2.92632 1.45046 0.0585038 -0.593631 0.760053 -0.681151 0.760053 -0.681151 1.45046 -0.25034 1.24631 2.42756 1.82268 2.9076 2.24549 2.33371 2.42756 2.73266 2.33371 2.30249 2.73266 2.80153 2.42756 2.73266 2.9076 3.29124 2.73266 2.80153 3.29124 3.36662 5.86491 5.18328 8.06922 7.32111 5.18328 4.19868 7.32111 6.09158 8.06922 7.32111 10.7185 9.97167 7.32111 6.09158 9.97167 8.56216 4.19868 2.92632 6.09158 4.29364 2.92632 1.45046 4.29364 1.66971 6.09158 4.29364 8.56216 6.02346 4.29364 1.66971 6.02346 1.46458 1.45046 -0.25034 1.66971 -0.213998 1.82268 2.9076 2.86161 3.66585 2.86161 3.66585 3.19334 4.67545 2.9076 3.29124 3.66585 4.05269 3.29124 3.36662 4.05269 4.23651 3.66585 4.05269 4.67545 5.00826 4.05269 4.23651 5.00826 5.03075 3.36662 3.96311 4.23651 4.29805 3.96311 3.07361 4.29805 4.1909 4.23651 4.29805 5.03075 4.905 4.29805 4.1909 4.905 4.24704 10.7185 9.97167 14.3615 13.8222 9.97167 8.56216 13.8222 12.1335 13.8222 12.1335 18.9329 17.0616 8.56216 6.02346 12.1335 8.68874 6.02346 1.46458 8.68874 2.40815 12.1335 8.68874 17.0616 13.3685 3.19334 4.67545 5.02118 6.25849 1.19567 5.02118 6.56279 8.3133 5.02118 6.25849 8.3133 8.46013 4.67545 5.00826 6.25849 6.36923 5.00826 5.03075 6.36923 6.07959 6.25849 6.36923 8.46013 8.08523 25.4996 26.5191 30.9496 33.1059 18.9329 17.0616 25.6311 23.8843 26.5191 25.6311 33.1059 32.7869 25.6311 23.8843 32.7869 31.8796 17.0616 13.3685 23.8843 20.974 14.2228 12.9061 22.3429 18.6064 6.56279 8.3133 12.9061 12.0044 8.3133 8.46013 12.0044 10.9467 12.9061 12.0044 18.6064 16.0662 12.0044 10.9467 16.0662 13.5615 8.46013 8.08523 10.9467 9.94844 10.9467 9.94844 13.5615 11.8537 9.94844 8.62592 11.8537 9.97114 30.2885 34.4545 34.4545 40.7078 30.9496 33.1059 37.7633 39.9287 34.4545 37.7633 40.7078 45.3688 37.7633 39.9287 45.3688 49.8861 33.1059 32.7869 39.9287 40.9107 32.7869 31.8796 40.9107 41.1382 39.9287 40.9107 49.8861 52.1293 22.3429 18.6064 27.4539 22.9799 33.8247 27.4539 37.027 30.7273 27.4539 22.9799 30.7273 26.0286 18.6064 16.0662 22.9799 19.8264 22.9799 19.8264 26.0286 22.1869 25.4996 30.9496 26.5191 33.1059 34.4545 40.7078 37.7633 45.3688 30.9496 37.7633 33.1059 39.9287 37.7633 45.3688 39.9287 49.8861 40.7078 45.3688 45.3688 55.3197 45.3688 49.8861 55.3197 66.8804 45.3688 55.3197 49.8861 66.8804 46.5485 37.027 48.1164 39.3817 48.1164 39.3817 48.704 40.6802 37.027 30.7273 39.3817 32.9946 30.7273 26.0286 32.9946 27.4003 39.3817 32.9946 40.6802 34.3896 26.0286 22.1869 27.4003 23.4812 1.74411 3.98885 1.58191 3.33548 3.98885 5.86491 3.33548 5.18328 1.58191 3.33548 1.14325 2.60003 3.33548 5.18328 2.60003 4.19868 5.86491 8.06922 5.18328 7.32111 8.06922 10.7185 7.32111 9.97167 5.18328 7.32111 4.19868 6.09158 7.32111 9.97167 6.09158 8.56216 10.7185 14.3615 9.97167 13.8222 9.97167 13.8222 8.56216 12.1335 13.8222 18.9329 12.1335 17.0616 26.5191 33.1059 25.6311 32.7869 18.9329 25.6311 17.0616 23.8843 25.6311 32.7869 23.8843 31.8796 33.1059 39.9287 32.7869 40.9107 39.9287 49.8861 40.9107 52.1293 32.7869 40.9107 31.8796 41.1382 81.8727 60.3053 68.1674 55.3251 81.8727 68.1674 60.3053 55.3251 68.1674 55.3251 55.3251 49.3226 60.3053 48.704 55.3251 46.63 48.704 40.6802 46.63 39.4609 55.3251 46.63 49.3226 42.5121 40.6802 34.3896 39.4609 34.0201 -1.56403 -0.233104 -1.56222 -0.471126 -0.233104 1.14325 -0.471126 0.618585 -1.56222 -0.471126 -1.5591 -0.70296 -0.471126 0.618585 -0.70296 0.0585038 1.14325 2.60003 0.618585 1.73385 2.60003 4.19868 1.73385 2.92632 0.618585 1.73385 0.0585038 0.760053 1.73385 2.92632 0.760053 1.45046 4.19868 6.09158 2.92632 4.29364 6.09158 8.56216 4.29364 6.02346 2.92632 4.29364 1.45046 1.66971 4.29364 6.02346 1.66971 1.46458 8.56216 12.1335 6.02346 8.68874 12.1335 17.0616 8.68874 13.3685 6.02346 8.68874 1.46458 2.40815 17.0616 23.8843 13.3685 20.974 46.5485 48.1164 37.027 39.3817 48.1164 48.704 39.3817 40.6802 60.3053 55.3251 48.704 46.63 55.3251 49.3226 46.63 42.5121 48.704 46.63 40.6802 39.4609 49.3226 42.5121 42.5121 38.2003 42.5121 36.0344 38.2003 33.1216 42.5121 38.2003 36.0344 33.1216 -1.5591 -0.70296 -1.55239 -0.811638 -0.70296 0.0585038 -0.811638 -0.593631 -1.55239 -0.811638 -1.52763 0.526141 0.0585038 0.760053 -0.593631 -0.681151 0.760053 1.45046 -0.681151 -0.25034 1.45046 1.66971 -0.25034 -0.213998 14.2228 22.3429 12.9061 18.6064 33.8247 37.027 27.4539 30.7273 22.3429 27.4539 18.6064 22.9799 27.4539 30.7273 22.9799 26.0286 37.027 39.3817 30.7273 32.9946 39.3817 40.6802 32.9946 34.3896 30.7273 32.9946 26.0286 27.4003 40.6802 39.4609 34.3896 34.0201 1.44671 4.40295 1.54529 2.17255 1.24631 1.82268 2.42756 2.9076 1.82268 2.86161 2.9076 3.66585 2.86161 3.19334 3.66585 4.67545 1.19567 6.56279 5.02118 8.3133 3.19334 5.02118 4.67545 6.25849 5.02118 8.3133 6.25849 8.46013 6.56279 12.9061 8.3133 12.0044 12.9061 18.6064 12.0044 16.0662 8.3133 12.0044 8.46013 10.9467 12.0044 16.0662 10.9467 13.5615 18.6064 22.9799 16.0662 19.8264 22.9799 26.0286 19.8264 22.1869 26.0286 27.4003 22.1869 23.4812 1.54529 2.17255 1.55659 1.9836 2.17255 2.24549 1.9836 2.33371 1.55659 1.9836 1.56095 1.95907 1.9836 2.33371 1.95907 2.30249 2.24549 2.42756 2.33371 2.73266 2.42756 2.9076 2.73266 3.29124 2.33371 2.73266 2.30249 2.80153 2.73266 3.29124 2.80153 3.36662 2.9076 3.66585 3.29124 4.05269 3.66585 4.67545 4.05269 5.00826 3.29124 4.05269 3.36662 4.23651 4.05269 5.00826 4.23651 5.03075 4.67545 6.25849 5.00826 6.36923 6.25849 8.46013 6.36923 8.08523 5.00826 6.36923 5.03075 6.07959 8.46013 10.9467 8.08523 9.94844 10.9467 13.5615 9.94844 11.8537 9.94844 11.8537 8.62592 9.97114 3.36662 4.23651 3.96311 4.29805 4.23651 5.03075 4.29805 4.905 3.96311 4.29805 3.07361 4.1909 4.29805 4.905 4.1909 4.24704 -1.56603 -1.5652 0.0293733 -0.0445322 -1.5652 -1.56403 -0.0445322 -0.233104 0.0293733 -0.0445322 1.74411 1.58191 -0.0445322 -0.233104 1.58191 1.14325 1.62587 3.58215 4.42103 4.47805 3.58215 1.74411 4.47805 3.98885 4.42103 4.47805 5.47795 6.15322 4.47805 3.98885 6.15322 5.86491 5.47795 6.15322 8.38011 8.39234 6.15322 5.86491 8.39234 8.06922 8.38011 8.39234 10.4794 11.0401 8.39234 8.06922 11.0401 10.7185 8.31835 12.7264 13.5887 14.1588 12.7264 10.4794 14.1588 14.2509 13.5887 14.1588 14.2278 16.5635 14.1588 14.2509 16.5635 17.8845 10.4794 11.0401 14.2509 14.2296 11.0401 10.7185 14.2296 14.3615 14.2509 14.2296 17.8845 18.7186 14.2296 14.3615 18.7186 19.2373 5.03075 4.905 6.07959 5.73345 4.905 4.24704 5.73345 5.50277 6.07959 5.73345 7.26504 6.60056 5.73345 5.50277 6.60056 5.50079 9.60889 15.2095 15.2095 16.3808 15.2095 14.2278 16.3808 17.8403 15.2095 16.3808 14.2278 17.8403 16.3808 17.8403 17.8403 20.8228 14.2278 16.5635 17.8403 19.5695 16.5635 17.8845 19.5695 22.1325 17.8403 19.5695 20.8228 23.865 19.5695 22.1325 23.865 26.6347 7.26504 6.60056 8.62592 7.54947 6.60056 5.50079 7.54947 7.06887 8.62592 7.54947 9.97114 7.98846 7.54947 7.06887 7.98846 6.92574 8.31835 13.5887 12.7264 14.1588 13.5887 14.2278 14.1588 16.5635 12.7264 14.1588 10.4794 14.2509 14.1588 16.5635 14.2509 17.8845 14.2278 17.8403 16.5635 19.5695 17.8403 20.8228 19.5695 23.865 16.5635 19.5695 17.8845 22.1325 19.5695 23.865 22.1325 26.6347 13.5615 11.8537 15.9446 13.6627 11.8537 9.97114 13.6627 12.7582 15.9446 13.6627 17.631 14.9947 13.6627 12.7582 14.9947 11.8129 1.62587 4.42103 3.58215 4.47805 4.42103 5.47795 4.47805 6.15322 3.58215 4.47805 1.74411 3.98885 4.47805 6.15322 3.98885 5.86491 5.47795 8.38011 6.15322 8.39234 8.38011 10.4794 8.39234 11.0401 6.15322 8.39234 5.86491 8.06922 8.39234 11.0401 8.06922 10.7185 10.4794 14.2509 11.0401 14.2296 14.2509 17.8845 14.2296 18.7186 11.0401 14.2296 10.7185 14.3615 14.2296 18.7186 14.3615 19.2373 17.631 14.9947 19.065 16.2914 14.9947 11.8129 16.2914 15.0973 19.065 16.2914 19.9492 17.0572 16.2914 15.0973 17.0572 13.1379 -1.56603 0.0293733 -1.5652 -0.0445322 0.0293733 1.74411 -0.0445322 1.58191 -1.5652 -0.0445322 -1.56403 -0.233104 -0.0445322 1.58191 -0.233104 1.14325 27.5714 23.5439 27.5165 23.2615 23.5439 19.9492 23.2615 20.1475 27.5165 23.2615 26.9544 23.2245 23.2615 20.1475 23.2245 19.2073 19.9492 17.0572 20.1475 17.6521 17.0572 13.1379 17.6521 16.2583 20.1475 17.6521 19.2073 17.5156 17.6521 16.2583 17.5156 13.0032 36.0344 31.4883 33.1216 29.059 31.4883 26.9544 29.059 25.6991 33.1216 29.059 29.7349 27.0101 29.059 25.6991 27.0101 23.0575 26.9544 23.2245 25.6991 23.077 23.2245 19.2073 23.077 21.5169 25.6991 23.077 23.0575 22.414 23.077 21.5169 22.414 16.4723 36.0344 33.1216 31.4883 29.059 33.1216 29.7349 29.059 27.0101 31.4883 29.059 26.9544 25.6991 29.059 27.0101 25.6991 23.0575 29.7349 27.0101 27.0101 25.3985 27.0101 23.0575 25.3985 24.1114 27.0101 25.3985 23.0575 24.1114 25.3985 24.1114 24.1114 17.8479 27.5714 27.5165 23.5439 23.2615 27.5165 26.9544 23.2615 23.2245 23.5439 23.2615 19.9492 20.1475 23.2615 23.2245 20.1475 19.2073 26.9544 25.6991 23.2245 23.077 25.6991 23.0575 23.077 22.414 23.2245 23.077 19.2073 21.5169 23.077 22.414 21.5169 16.4723 13.5615 15.9446 11.8537 13.6627 15.9446 17.631 13.6627 14.9947 11.8537 13.6627 9.97114 12.7582 13.6627 14.9947 12.7582 11.8129 17.631 19.065 14.9947 16.2914 19.065 19.9492 16.2914 17.0572 14.9947 16.2914 11.8129 15.0973 16.2914 17.0572 15.0973 13.1379 19.9492 20.1475 17.0572 17.6521 20.1475 19.2073 17.6521 17.5156 17.0572 17.6521 13.1379 16.2583 17.6521 17.5156 16.2583 13.0032 5.03075 6.07959 4.905 5.73345 6.07959 7.26504 5.73345 6.60056 4.905 5.73345 4.24704 5.50277 5.73345 6.60056 5.50277 5.50079 7.26504 8.62592 6.60056 7.54947 8.62592 9.97114 7.54947 7.98846 6.60056 7.54947 5.50079 7.06887 7.54947 7.98846 7.06887 6.92574 -0.811638 -0.49546 -0.709406 -0.670998 -0.49546 0.526141 -0.670998 -0.771638 -0.709406 -0.670998 -0.593631 -0.953246 -0.670998 -0.771638 -0.953246 -0.892566 -1.52763 -1.43941 3.45718 8.63691 -1.43941 1.44671 8.63691 14.6131 3.45718 8.63691 0.526141 2.68187 8.63691 14.6131 2.68187 4.40295 0.526141 2.68187 -0.771638 -4.44981 2.68187 4.40295 -4.44981 2.04386 -0.771638 -4.44981 -0.892566 1.63084 -4.44981 2.04386 1.63084 2.02706 4.40295 2.56636 2.04386 2.31432 2.56636 2.17255 2.31432 2.28107 2.04386 2.31432 2.02706 2.12302 2.31432 2.28107 2.12302 2.24549 -0.593631 -0.953246 -1.24986 -1.48097 -0.953246 -0.892566 -1.48097 -1.4622 -1.24986 -1.48097 -0.681151 -2.07528 -1.48097 -1.4622 -2.07528 -4.14101 -0.681151 -2.07528 -1.54801 -2.10653 -2.07528 -4.14101 -2.10653 -2.41785 -1.54801 -2.10653 -0.25034 -1.75077 -2.10653 -2.41785 -1.75077 -4.94259 -0.892566 1.63084 -1.4622 4.94658 1.63084 2.02706 4.94658 2.05815 -1.4622 4.94658 -4.14101 -1.74699 4.94658 2.05815 -1.74699 1.24631 2.02706 2.12302 2.05815 2.01636 2.12302 2.24549 2.01636 2.11248 2.05815 2.01636 1.24631 1.93922 2.01636 2.11248 1.93922 2.42756 -4.14101 -1.74699 -2.41785 -0.460229 -1.74699 1.24631 -0.460229 0.206482 -2.41785 -0.460229 -4.94259 0.81837 -0.460229 0.206482 0.81837 1.82268 -0.25034 -1.75077 -0.463516 -0.432952 -1.75077 -4.94259 -0.432952 0.888513 -0.463516 -0.432952 -0.213998 1.02347 -0.432952 0.888513 1.02347 3.24668 1.66971 -0.790604 -0.677163 -1.43044 -0.790604 -0.213998 -1.43044 -2.02889 -0.677163 -1.43044 1.46458 -2.38292 -1.43044 -2.02889 -2.38292 -4.52354 -0.213998 1.02347 -2.02889 -0.63685 1.02347 3.24668 -0.63685 3.17585 -2.02889 -0.63685 -4.52354 -5.90462 -0.63685 3.17585 -5.90462 -0.438434 -4.94259 0.81837 0.888513 1.76962 0.81837 1.82268 1.76962 1.88123 0.888513 1.76962 3.24668 2.58953 1.76962 1.88123 2.58953 2.86161 3.24668 2.58953 3.17585 2.34675 2.58953 2.86161 2.34675 2.43069 3.17585 2.34675 -0.438434 1.49009 2.34675 2.43069 1.49009 3.19334 14.3615 16.798 17.7858 17.8809 16.798 13.8222 17.8809 17.6536 17.7858 17.8809 19.2373 19.6039 17.8809 17.6536 19.6039 18.9329 8.68874 6.35915 8.66947 7.29787 6.35915 2.40815 7.29787 4.19601 8.66947 7.29787 13.3685 9.79336 7.29787 4.19601 9.79336 7.19033 1.46458 -2.38292 -1.41616 -3.21982 -2.38292 -4.52354 -3.21982 -6.93317 -1.41616 -3.21982 2.40815 -2.47579 -3.21982 -6.93317 -2.47579 -7.50885 -4.52354 -5.90462 -6.93317 -4.97513 -5.90462 -0.438434 -4.97513 -0.881718 -6.93317 -4.97513 -7.50885 -2.28384 -4.97513 -0.881718 -2.28384 1.19567 2.40815 -2.47579 4.19601 -0.414187 -2.47579 -7.50885 -0.414187 -0.37681 4.19601 -0.414187 7.19033 4.09341 -0.414187 -0.37681 4.09341 4.50028 -7.50885 -2.28384 -0.37681 0.836385 -2.28384 1.19567 0.836385 1.83121 -0.37681 0.836385 4.50028 4.83742 0.836385 1.83121 4.83742 6.56279 -0.438434 1.49009 -0.881718 1.11545 1.49009 3.19334 1.11545 2.04483 -0.881718 1.11545 1.19567 1.42955 1.11545 2.04483 1.42955 5.02118 6.36923 6.96035 7.29688 7.255 6.96035 6.07959 7.255 7.13662 7.29688 7.255 8.08523 7.70421 7.255 7.13662 7.70421 7.26504 17.8845 21.1309 21.8423 22.2793 21.1309 18.7186 22.2793 22.3446 21.8423 22.2793 22.1325 24.1382 22.2793 22.3446 24.1382 25.4996 18.7186 21.2767 22.3446 22.2854 21.2767 19.2373 22.2854 22.1181 22.3446 22.2854 25.4996 23.3465 22.2854 22.1181 23.3465 26.5191 22.1325 24.1382 25.7601 26.3104 24.1382 25.4996 26.3104 26.8571 25.7601 26.3104 26.6347 28.5046 26.3104 26.8571 28.5046 30.9496 19.2373 19.6039 22.1181 21.6392 19.6039 18.9329 21.6392 21.622 22.1181 21.6392 26.5191 22.9503 21.6392 21.622 22.9503 25.6311 13.3685 9.79336 14.5486 12.8869 9.79336 7.19033 12.8869 8.86665 14.5486 12.8869 20.974 18.0897 12.8869 8.86665 18.0897 12.0442 23.8843 26.1926 28.3475 28.0627 26.1926 20.974 28.0627 26.8788 28.3475 28.0627 31.8796 31.2143 28.0627 26.8788 31.2143 31.152 20.974 18.0897 26.8788 26.4361 18.0897 12.0442 26.4361 25.9956 26.8788 26.4361 31.152 33.8672 26.4361 25.9956 33.8672 31.3354 7.19033 4.09341 8.86665 12.9349 4.09341 4.50028 12.9349 9.72178 8.86665 12.9349 12.0442 13.6059 12.9349 9.72178 13.6059 14.2228 4.50028 4.83742 9.72178 8.26662 4.83742 6.56279 8.26662 8.27972 9.72178 8.26662 14.2228 10.0285 8.26662 8.27972 10.0285 12.9061 12.0442 13.6059 25.9956 21.3393 13.6059 14.2228 21.3393 20.0535 25.9956 21.3393 31.3354 26.3423 21.3393 20.0535 26.3423 22.3429 8.08523 7.70421 8.36724 8.17655 7.70421 7.26504 8.17655 8.06225 8.36724 8.17655 9.94844 8.49422 8.17655 8.06225 8.49422 8.62592 20.8228 25.198 25.198 26.1729 25.198 23.865 26.1729 27.3514 25.198 26.1729 23.865 27.3514 26.1729 27.3514 27.3514 30.2885 23.865 27.5822 27.3514 28.5949 27.5822 26.6347 28.5949 29.7471 27.3514 28.5949 30.2885 29.6598 28.5949 29.7471 29.6598 34.4545 23.865 27.3514 27.5822 28.5949 27.3514 30.2885 28.5949 29.6598 27.5822 28.5949 26.6347 29.7471 28.5949 29.6598 29.7471 34.4545 26.6347 28.5046 29.7471 30.5615 28.5046 30.9496 30.5615 31.4234 29.7471 30.5615 34.4545 32.0511 30.5615 31.4234 32.0511 37.7633 40.9107 46.3319 48.4421 48.6678 46.3319 41.1382 48.6678 48.5131 48.4421 48.6678 52.1293 51.8699 48.6678 48.5131 51.8699 52.9871 31.8796 31.2143 35.418 34.4147 31.214