# vtk DataFile Version 3.0
#This file was generated by the deal.II library on 2020/5/27 at 9:04:58
ASCII
DATASET UNSTRUCTURED_GRID

POINTS 7156 double
0 0 0
0.0625 0 0
0 0.0625 0
0.0625 0.0625 0
0.0625 0 0
0.125 0 0
0.0625 0.0625 0
0.125 0.0625 0
0.125 0 0
0.1875 0 0
0.125 0.0625 0
0.1875 0.0625 0
0.1875 0 0
0.25 0 0
0.1875 0.0625 0
0.25 0.0625 0
0.25 0 0
0.3125 0 0
0.25 0.0625 0
0.3125 0.0625 0
0.3125 0 0
0.375 0 0
0.3125 0.0625 0
0.375 0.0625 0
0.375 0 0
0.4375 0 0
0.375 0.0625 0
0.4375 0.0625 0
0.75 0 0
0.8125 0 0
0.75 0.0625 0
0.8125 0.0625 0
0.8125 0 0
0.875 0 0
0.8125 0.0625 0
0.875 0.0625 0
0.875 0 0
0.9375 0 0
0.875 0.0625 0
0.9375 0.0625 0
0.9375 0 0
1 0 0
0.9375 0.0625 0
1 0.0625 0
0 0.0625 0
0.0625 0.0625 0
0 0.125 0
0.0625 0.125 0
0.0625 0.0625 0
0.125 0.0625 0
0.0625 0.125 0
0.125 0.125 0
0.125 0.0625 0
0.1875 0.0625 0
0.125 0.125 0
0.1875 0.125 0
0.1875 0.0625 0
0.25 0.0625 0
0.1875 0.125 0
0.25 0.125 0
0.25 0.0625 0
0.3125 0.0625 0
0.25 0.125 0
0.3125 0.125 0
0.3125 0.0625 0
0.375 0.0625 0
0.3125 0.125 0
0.375 0.125 0
0.75 0.0625 0
0.8125 0.0625 0
0.75 0.125 0
0.8125 0.125 0
0.8125 0.0625 0
0.875 0.0625 0
0.8125 0.125 0
0.875 0.125 0
0.875 0.0625 0
0.9375 0.0625 0
0.875 0.125 0
0.9375 0.125 0
0.9375 0.0625 0
1 0.0625 0
0.9375 0.125 0
1 0.125 0
0 0.125 0
0.0625 0.125 0
0 0.1875 0
0.0625 0.1875 0
0.0625 0.125 0
0.125 0.125 0
0.0625 0.1875 0
0.125 0.1875 0
0.125 0.125 0
0.1875 0.125 0
0.125 0.1875 0
0.1875 0.1875 0
0.1875 0.125 0
0.25 0.125 0
0.1875 0.1875 0
0.25 0.1875 0
0.25 0.125 0
0.3125 0.125 0
0.25 0.1875 0
0.3125 0.1875 0
0.8125 0.125 0
0.875 0.125 0
0.8125 0.1875 0
0.875 0.1875 0
0.875 0.125 0
0.9375 0.125 0
0.875 0.1875 0
0.9375 0.1875 0
0.9375 0.125 0
1 0.125 0
0.9375 0.1875 0
1 0.1875 0
0 0.1875 0
0.0625 0.1875 0
0 0.25 0
0.0625 0.25 0
0.0625 0.1875 0
0.125 0.1875 0
0.0625 0.25 0
0.125 0.25 0
0.125 0.1875 0
0.1875 0.1875 0
0.125 0.25 0
0.1875 0.25 0
0.8125 0.1875 0
0.875 0.1875 0
0.8125 0.25 0
0.875 0.25 0
0.875 0.1875 0
0.9375 0.1875 0
0.875 0.25 0
0.9375 0.25 0
0.9375 0.1875 0
1 0.1875 0
0.9375 0.25 0
1 0.25 0
0 0.25 0
0.0625 0.25 0
0 0.3125 0
0.0625 0.3125 0
0.0625 0.25 0
0.125 0.25 0
0.0625 0.3125 0
0.125 0.3125 0
0.125 0.25 0
0.1875 0.25 0
0.125 0.3125 0
0.1875 0.3125 0
0.8125 0.25 0
0.875 0.25 0
0.8125 0.3125 0
0.875 0.3125 0
0.875 0.25 0
0.9375 0.25 0
0.875 0.3125 0
0.9375 0.3125 0
0.9375 0.25 0
1 0.25 0
0.9375 0.3125 0
1 0.3125 0
0 0.3125 0
0.0625 0.3125 0
0 0.375 0
0.0625 0.375 0
0.0625 0.3125 0
0.125 0.3125 0
0.0625 0.375 0
0.125 0.375 0
0.8125 0.3125 0
0.875 0.3125 0
0.8125 0.375 0
0.875 0.375 0
0.875 0.3125 0
0.9375 0.3125 0
0.875 0.375 0
0.9375 0.375 0
0.9375 0.3125 0
1 0.3125 0
0.9375 0.375 0
1 0.375 0
0 0.375 0
0.0625 0.375 0
0 0.4375 0
0.0625 0.4375 0
0.8125 0.375 0
0.875 0.375 0
0.8125 0.4375 0
0.875 0.4375 0
0.875 0.375 0
0.9375 0.375 0
0.875 0.4375 0
0.9375 0.4375 0
0.9375 0.375 0
1 0.375 0
0.9375 0.4375 0
1 0.4375 0
0.8125 0.4375 0
0.875 0.4375 0
0.8125 0.5 0
0.875 0.5 0
0.875 0.4375 0
0.9375 0.4375 0
0.875 0.5 0
0.9375 0.5 0
0.9375 0.4375 0
1 0.4375 0
0.9375 0.5 0
1 0.5 0
0.75 0.5 0
0.8125 0.5 0
0.75 0.5625 0
0.8125 0.5625 0
0.8125 0.5 0
0.875 0.5 0
0.8125 0.5625 0
0.875 0.5625 0
0.875 0.5 0
0.9375 0.5 0
0.875 0.5625 0
0.9375 0.5625 0
0.9375 0.5 0
1 0.5 0
0.9375 0.5625 0
1 0.5625 0
0.75 0.5625 0
0.8125 0.5625 0
0.75 0.625 0
0.8125 0.625 0
0.8125 0.5625 0
0.875 0.5625 0
0.8125 0.625 0
0.875 0.625 0
0.875 0.5625 0
0.9375 0.5625 0
0.875 0.625 0
0.9375 0.625 0
0.9375 0.5625 0
1 0.5625 0
0.9375 0.625 0
1 0.625 0
0.6875 0.625 0
0.75 0.625 0
0.6875 0.6875 0
0.75 0.6875 0
0.75 0.625 0
0.8125 0.625 0
0.75 0.6875 0
0.8125 0.6875 0
0.8125 0.625 0
0.875 0.625 0
0.8125 0.6875 0
0.875 0.6875 0
0.875 0.625 0
0.9375 0.625 0
0.875 0.6875 0
0.9375 0.6875 0
0.9375 0.625 0
1 0.625 0
0.9375 0.6875 0
1 0.6875 0
0.625 0.6875 0
0.6875 0.6875 0
0.625 0.75 0
0.6875 0.75 0
0.6875 0.6875 0
0.75 0.6875 0
0.6875 0.75 0
0.75 0.75 0
0.75 0.6875 0
0.8125 0.6875 0
0.75 0.75 0
0.8125 0.75 0
0.8125 0.6875 0
0.875 0.6875 0
0.8125 0.75 0
0.875 0.75 0
0.875 0.6875 0
0.9375 0.6875 0
0.875 0.75 0
0.9375 0.75 0
0.9375 0.6875 0
1 0.6875 0
0.9375 0.75 0
1 0.75 0
0 0.75 0
0.0625 0.75 0
0 0.8125 0
0.0625 0.8125 0
0.0625 0.75 0
0.125 0.75 0
0.0625 0.8125 0
0.125 0.8125 0
0.5 0.75 0
0.5625 0.75 0
0.5 0.8125 0
0.5625 0.8125 0
0.5625 0.75 0
0.625 0.75 0
0.5625 0.8125 0
0.625 0.8125 0
0.625 0.75 0
0.6875 0.75 0
0.625 0.8125 0
0.6875 0.8125 0
0.6875 0.75 0
0.75 0.75 0
0.6875 0.8125 0
0.75 0.8125 0
0.75 0.75 0
0.8125 0.75 0
0.75 0.8125 0
0.8125 0.8125 0
0.8125 0.75 0
0.875 0.75 0
0.8125 0.8125 0
0.875 0.8125 0
0.875 0.75 0
0.9375 0.75 0
0.875 0.8125 0
0.9375 0.8125 0
0.9375 0.75 0
1 0.75 0
0.9375 0.8125 0
1 0.8125 0
0 0.8125 0
0.0625 0.8125 0
0 0.875 0
0.0625 0.875 0
0.0625 0.8125 0
0.125 0.8125 0
0.0625 0.875 0
0.125 0.875 0
0.125 0.8125 0
0.1875 0.8125 0
0.125 0.875 0
0.1875 0.875 0
0.1875 0.8125 0
0.25 0.8125 0
0.1875 0.875 0
0.25 0.875 0
0.25 0.8125 0
0.3125 0.8125 0
0.25 0.875 0
0.3125 0.875 0
0.3125 0.8125 0
0.375 0.8125 0
0.3125 0.875 0
0.375 0.875 0
0.375 0.8125 0
0.4375 0.8125 0
0.375 0.875 0
0.4375 0.875 0
0.4375 0.8125 0
0.5 0.8125 0
0.4375 0.875 0
0.5 0.875 0
0.5 0.8125 0
0.5625 0.8125 0
0.5 0.875 0
0.5625 0.875 0
0.5625 0.8125 0
0.625 0.8125 0
0.5625 0.875 0
0.625 0.875 0
0.625 0.8125 0
0.6875 0.8125 0
0.625 0.875 0
0.6875 0.875 0
0.6875 0.8125 0
0.75 0.8125 0
0.6875 0.875 0
0.75 0.875 0
0.75 0.8125 0
0.8125 0.8125 0
0.75 0.875 0
0.8125 0.875 0
0.8125 0.8125 0
0.875 0.8125 0
0.8125 0.875 0
0.875 0.875 0
0.875 0.8125 0
0.9375 0.8125 0
0.875 0.875 0
0.9375 0.875 0
0.9375 0.8125 0
1 0.8125 0
0.9375 0.875 0
1 0.875 0
0 0.875 0
0.0625 0.875 0
0 0.9375 0
0.0625 0.9375 0
0.0625 0.875 0
0.125 0.875 0
0.0625 0.9375 0
0.125 0.9375 0
0.125 0.875 0
0.1875 0.875 0
0.125 0.9375 0
0.1875 0.9375 0
0.1875 0.875 0
0.25 0.875 0
0.1875 0.9375 0
0.25 0.9375 0
0.25 0.875 0
0.3125 0.875 0
0.25 0.9375 0
0.3125 0.9375 0
0.3125 0.875 0
0.375 0.875 0
0.3125 0.9375 0
0.375 0.9375 0
0.375 0.875 0
0.4375 0.875 0
0.375 0.9375 0
0.4375 0.9375 0
0.4375 0.875 0
0.5 0.875 0
0.4375 0.9375 0
0.5 0.9375 0
0.5 0.875 0
0.5625 0.875 0
0.5 0.9375 0
0.5625 0.9375 0
0.5625 0.875 0
0.625 0.875 0
0.5625 0.9375 0
0.625 0.9375 0
0.625 0.875 0
0.6875 0.875 0
0.625 0.9375 0
0.6875 0.9375 0
0.6875 0.875 0
0.75 0.875 0
0.6875 0.9375 0
0.75 0.9375 0
0.75 0.875 0
0.8125 0.875 0
0.75 0.9375 0
0.8125 0.9375 0
0.8125 0.875 0
0.875 0.875 0
0.8125 0.9375 0
0.875 0.9375 0
0.875 0.875 0
0.9375 0.875 0
0.875 0.9375 0
0.9375 0.9375 0
0.9375 0.875 0
1 0.875 0
0.9375 0.9375 0
1 0.9375 0
0 0.9375 0
0.0625 0.9375 0
0 1 0
0.0625 1 0
0.0625 0.9375 0
0.125 0.9375 0
0.0625 1 0
0.125 1 0
0.125 0.9375 0
0.1875 0.9375 0
0.125 1 0
0.1875 1 0
0.1875 0.9375 0
0.25 0.9375 0
0.1875 1 0
0.25 1 0
0.25 0.9375 0
0.3125 0.9375 0
0.25 1 0
0.3125 1 0
0.3125 0.9375 0
0.375 0.9375 0
0.3125 1 0
0.375 1 0
0.375 0.9375 0
0.4375 0.9375 0
0.375 1 0
0.4375 1 0
0.4375 0.9375 0
0.5 0.9375 0
0.4375 1 0
0.5 1 0
0.5 0.9375 0
0.5625 0.9375 0
0.5 1 0
0.5625 1 0
0.5625 0.9375 0
0.625 0.9375 0
0.5625 1 0
0.625 1 0
0.625 0.9375 0
0.6875 0.9375 0
0.625 1 0
0.6875 1 0
0.6875 0.9375 0
0.75 0.9375 0
0.6875 1 0
0.75 1 0
0.75 0.9375 0
0.8125 0.9375 0
0.75 1 0
0.8125 1 0
0.8125 0.9375 0
0.875 0.9375 0
0.8125 1 0
0.875 1 0
0.875 0.9375 0
0.9375 0.9375 0
0.875 1 0
0.9375 1 0
0.9375 0.9375 0
1 0.9375 0
0.9375 1 0
1 1 0
0.5 0 0
0.53125 0 0
0.5 0.03125 0
0.53125 0.03125 0
0.53125 0 0
0.5625 0 0
0.53125 0.03125 0
0.5625 0.03125 0
0.5 0.03125 0
0.53125 0.03125 0
0.5 0.0625 0
0.53125 0.0625 0
0.53125 0.03125 0
0.5625 0.03125 0
0.53125 0.0625 0
0.5625 0.0625 0
0.5625 0 0
0.59375 0 0
0.5625 0.03125 0
0.59375 0.03125 0
0.5625 0.03125 0
0.59375 0.03125 0
0.5625 0.0625 0
0.59375 0.0625 0
0.6875 0 0
0.71875 0 0
0.6875 0.03125 0
0.71875 0.03125 0
0.71875 0 0
0.75 0 0
0.71875 0.03125 0
0.75 0.03125 0
0.6875 0.03125 0
0.71875 0.03125 0
0.6875 0.0625 0
0.71875 0.0625 0
0.71875 0.03125 0
0.75 0.03125 0
0.71875 0.0625 0
0.75 0.0625 0
0.4375 0.0625 0
0.46875 0.0625 0
0.4375 0.09375 0
0.46875 0.09375 0
0.46875 0.0625 0
0.5 0.0625 0
0.46875 0.09375 0
0.5 0.09375 0
0.4375 0.09375 0
0.46875 0.09375 0
0.4375 0.125 0
0.46875 0.125 0
0.46875 0.09375 0
0.5 0.09375 0
0.46875 0.125 0
0.5 0.125 0
0.5 0.0625 0
0.53125 0.0625 0
0.5 0.09375 0
0.53125 0.09375 0
0.53125 0.0625 0
0.5625 0.0625 0
0.53125 0.09375 0
0.5625 0.09375 0
0.5 0.09375 0
0.53125 0.09375 0
0.5 0.125 0
0.53125 0.125 0
0.53125 0.09375 0
0.5625 0.09375 0
0.53125 0.125 0
0.5625 0.125 0
0.5625 0.0625 0
0.59375 0.0625 0
0.5625 0.09375 0
0.59375 0.09375 0
0.5625 0.09375 0
0.59375 0.09375 0
0.5625 0.125 0
0.59375 0.125 0
0.6875 0.0625 0
0.71875 0.0625 0
0.6875 0.09375 0
0.71875 0.09375 0
0.71875 0.0625 0
0.75 0.0625 0
0.71875 0.09375 0
0.75 0.09375 0
0.6875 0.09375 0
0.71875 0.09375 0
0.6875 0.125 0
0.71875 0.125 0
0.71875 0.09375 0
0.75 0.09375 0
0.71875 0.125 0
0.75 0.125 0
0.4375 0.125 0
0.46875 0.125 0
0.4375 0.15625 0
0.46875 0.15625 0
0.46875 0.125 0
0.5 0.125 0
0.46875 0.15625 0
0.5 0.15625 0
0.4375 0.15625 0
0.46875 0.15625 0
0.4375 0.1875 0
0.46875 0.1875 0
0.46875 0.15625 0
0.5 0.15625 0
0.46875 0.1875 0
0.5 0.1875 0
0.5 0.125 0
0.53125 0.125 0
0.5 0.15625 0
0.53125 0.15625 0
0.53125 0.125 0
0.5625 0.125 0
0.53125 0.15625 0
0.5625 0.15625 0
0.5 0.15625 0
0.53125 0.15625 0
0.5 0.1875 0
0.53125 0.1875 0
0.5625 0.125 0
0.59375 0.125 0
0.5625 0.15625 0
0.59375 0.15625 0
0.65625 0.125 0
0.6875 0.125 0
0.65625 0.15625 0
0.6875 0.15625 0
0.65625 0.15625 0
0.6875 0.15625 0
0.65625 0.1875 0
0.6875 0.1875 0
0.6875 0.125 0
0.71875 0.125 0
0.6875 0.15625 0
0.71875 0.15625 0
0.71875 0.125 0
0.75 0.125 0
0.71875 0.15625 0
0.75 0.15625 0
0.6875 0.15625 0
0.71875 0.15625 0
0.6875 0.1875 0
0.71875 0.1875 0
0.71875 0.15625 0
0.75 0.15625 0
0.71875 0.1875 0
0.75 0.1875 0
0.75 0.125 0
0.78125 0.125 0
0.75 0.15625 0
0.78125 0.15625 0
0.78125 0.125 0
0.8125 0.125 0
0.78125 0.15625 0
0.8125 0.15625 0
0.75 0.15625 0
0.78125 0.15625 0
0.75 0.1875 0
0.78125 0.1875 0
0.78125 0.15625 0
0.8125 0.15625 0
[...]
POINT_DATA 7156
SCALARS solution double 1
LOOKUP_TABLE default
-1.56921 -1.56906 -1.56906 -1.48249 -1.56906 -1.56887 -1.48249 -1.39592 -1.56887 -1.56861 -1.39592 -1.31163 -1.56861 -1.56827 -1.31163 -1.23502 -1.56827 -1.5678 -1.23502 -1.17448 -1.5678 -1.56712 -1.17448 -1.10843 -1.56712 -1.56603 -1.10843 -1.07047 1.56095 1.5647 1.76736 1.70236 1.5647 1.56638 1.70236 1.65832 1.56638 1.56733 1.65832 1.61359 1.56733 1.56795 1.61359 1.56799 -1.56906 -1.48249 -1.56887 -1.39592 -1.48249 -1.39592 -1.39592 -1.21948 -1.39592 -1.31163 -1.21948 -1.03991 -1.31163 -1.23502 -1.03991 -0.866325 -1.23502 -1.17448 -0.866325 -0.668689 -1.17448 -1.10843 -0.668689 -0.473889 1.76736 1.70236 2.00058 1.87011 1.70236 1.65832 1.87011 1.75457 1.65832 1.61359 1.75457 1.66094 1.61359 1.56799 1.66094 1.56805 -1.56887 -1.39592 -1.56861 -1.31163 -1.39592 -1.21948 -1.31163 -1.03991 -1.21948 -1.03991 -1.03991 -0.680506 -1.03991 -0.866325 -0.680506 -0.303283 -0.866325 -0.668689 -0.303283 0.040629 1.87011 1.75457 2.05877 1.85519 1.75457 1.66094 1.85519 1.70948 1.66094 1.56805 1.70948 1.56814 -1.56861 -1.31163 -1.56827 -1.23502 -1.31163 -1.03991 -1.23502 -0.866325 -1.03991 -0.680506 -0.866325 -0.303283 2.05877 1.85519 2.23397 1.95634 1.85519 1.70948 1.95634 1.75802 1.70948 1.56814 1.75802 1.56825 -1.56827 -1.23502 -1.5678 -1.17448 -1.23502 -0.866325 -1.17448 -0.668689 -0.866325 -0.303283 -0.668689 0.040629 2.23397 1.95634 2.42686 2.05491 1.95634 1.75802 2.05491 1.80419 1.75802 1.56825 1.80419 1.56836 -1.5678 -1.17448 -1.56712 -1.10843 -1.17448 -0.668689 -1.10843 -0.473889 2.42686 2.05491 2.59158 2.1406 2.05491 1.80419 2.1406 1.84429 1.80419 1.56836 1.84429 1.56849 -1.56712 -1.10843 -1.56603 -1.07047 2.59158 2.1406 2.70279 2.20418 2.1406 1.84429 2.20418 1.87475 1.84429 1.56849 1.87475 1.56861 2.70279 2.20418 2.71905 2.24157 2.20418 1.87475 2.24157 1.89225 1.87475 1.56861 1.89225 1.56874 3.44856 2.71905 3.31266 2.64769 2.71905 2.24157 2.64769 2.23767 2.24157 1.89225 2.23767 1.89147 1.89225 1.56874 1.89147 1.56886 3.31266 2.64769 3.04582 2.54552 2.64769 2.23767 2.54552 2.18858 2.23767 1.89147 2.18858 1.87054 1.89147 1.56886 1.87054 1.56897 3.73503 3.04582 3.17217 2.7361 3.04582 2.54552 2.7361 2.40513 2.54552 2.18858 2.40513 2.10899 2.18858 1.87054 2.10899 1.83392 1.87054 1.56897 1.83392 1.56908 3.73503 3.17217 3.04582 2.7361 3.17217 2.7361 2.7361 2.48502 2.7361 2.40513 2.48502 2.24273 2.40513 2.10899 2.24273 2.01039 2.10899 1.83392 2.01039 1.78714 1.83392 1.56908 1.78714 1.56918 1.56095 1.76736 1.5647 1.70236 1.76736 2.00058 1.70236 1.87011 3.44856 3.31266 2.71905 2.64769 3.31266 3.04582 2.64769 2.54552 3.04582 2.7361 2.54552 2.40513 2.7361 2.48502 2.40513 2.24273 2.48502 2.24273 2.24273 2.07269 2.24273 2.01039 2.07269 1.90246 2.01039 1.78714 1.90246 1.73483 1.78714 1.56918 1.73483 1.56928 1.5647 1.70236 1.56638 1.65832 1.70236 1.87011 1.65832 1.75457 1.87011 2.05877 1.75457 1.85519 2.05877 2.23397 1.85519 1.95634 2.23397 2.42686 1.95634 2.05491 2.42686 2.59158 2.05491 2.1406 2.59158 2.70279 2.1406 2.20418 2.70279 2.71905 2.20418 2.24157 2.71905 2.64769 2.24157 2.23767 2.64769 2.54552 2.23767 2.18858 2.54552 2.40513 2.18858 2.10899 2.40513 2.24273 2.10899 2.01039 2.24273 2.07269 2.01039 1.90246 2.07269 1.90246 1.90246 1.7914 1.90246 1.73483 1.7914 1.68016 1.73483 1.56928 1.68016 1.56937 1.56638 1.65832 1.56733 1.61359 1.65832 1.75457 1.61359 1.66094 1.75457 1.85519 1.66094 1.70948 1.85519 1.95634 1.70948 1.75802 1.95634 2.05491 1.75802 1.80419 2.05491 2.1406 1.80419 1.84429 2.1406 2.20418 1.84429 1.87475 2.20418 2.24157 1.87475 1.89225 2.24157 2.23767 1.89225 1.89147 2.23767 2.18858 1.89147 1.87054 2.18858 2.10899 1.87054 1.83392 2.10899 2.01039 1.83392 1.78714 2.01039 1.90246 1.78714 1.73483 1.90246 1.7914 1.73483 1.68016 1.7914 1.68016 1.68016 1.62483 1.68016 1.56937 1.62483 1.56945 1.56733 1.61359 1.56795 1.56799 1.61359 1.66094 1.56799 1.56805 1.66094 1.70948 1.56805 1.56814 1.70948 1.75802 1.56814 1.56825 1.75802 1.80419 1.56825 1.56836 1.80419 1.84429 1.56836 1.56849 1.84429 1.87475 1.56849 1.56861 1.87475 1.89225 1.56861 1.56874 1.89225 1.89147 1.56874 1.56886 1.89147 1.87054 1.56886 1.56897 1.87054 1.83392 1.56897 1.56908 1.83392 1.78714 1.56908 1.56918 1.78714 1.73483 1.56918 1.56928 1.73483 1.68016 1.56928 1.56937 1.68016 1.62483 1.56937 1.56945 1.62483 1.56945 1.56945 1.56952 -1.56403 -1.56222 -1.34748 -1.36855 -1.56222 -1.5591 -1.36855 -1.38626 -1.34748 -1.36855 -1.12848 -1.17712 -1.36855 -1.38626 -1.17712 -1.21836 -1.5591 -1.55239 -1.38626 -1.3955 -1.38626 -1.3955 -1.21836 -1.24701 1.54529 1.55659 1.73002 1.69625 1.55659 1.56095 1.69625 1.68573 1.73002 1.69625 1.86151 1.8227 1.69625 1.68573 1.8227 1.76736 -1.07047 -1.08217 -0.739415 -0.824766 -1.08217 -1.12848 -0.824766 -0.907343 -0.739415 -0.824766 -0.476883 -0.568071 -0.824766 -0.907343 -0.568071 -0.680859 -1.12848 -1.17712 -0.907343 -0.991651 -1.17712 -1.21836 -0.991651 -1.06375 -0.907343 -0.991651 -0.680859 -0.814608 -0.991651 -1.06375 -0.814608 -0.938835 -1.21836 -1.24701 -1.06375 -1.10328 -1.06375 -1.10328 -0.938835 -1.00145 1.86151 1.8227 1.98104 1.94703 1.8227 1.76736 1.94703 1.9284 1.98104 1.94703 2.10347 2.06366 1.94703 1.9284 2.06366 2.00058 -0.476883 -0.568071 -0.187165 -0.292072 -0.568071 -0.680859 -0.292072 -0.431291 -0.187165 -0.292072 0.149671 0.0245184 -0.292072 -0.431291 0.0245184 -0.14973 -0.680859 -0.814608 -0.431291 -0.628937 -0.814608 -0.938835 -0.628937 -0.859799 -0.431291 -0.628937 -0.14973 -0.400582 -0.938835 -1.00145 -0.859799 -0.985547 2.1496 2.10347 2.18982 2.20457 2.18982 2.20457 2.24015 2.31333 2.10347 2.06366 2.20457 2.18036 2.06366 2.00058 2.18036 2.15199 2.20457 2.18036 2.31333 2.29901 2.18036 2.15199 2.29901 2.26018 2.00058 2.07183 2.15199 2.12524 2.07183 1.87011 2.12524 2.08964 2.15199 2.12524 2.26018 2.2086 2.12524 2.08964 2.2086 2.05877 0.149671 0.0245184 0.696954 0.475005 0.0245184 -0.14973 0.475005 0.196578 0.475005 0.196578 1.09285 0.690545 -0.14973 -0.400582 0.196578 -0.117945 2.24015 2.31333 2.37957 2.47154 2.37957 2.47154 2.65518 2.69002 2.31333 2.29901 2.47154 2.45358 2.29901 2.26018 2.45358 2.38937 2.47154 2.45358 2.69002 2.64235 2.65518 2.69002 3.04555 2.94962 3.13195 3.04555 3.60502 3.47216 3.04555 2.94962 3.47216 3.23804 2.69002 2.64235 2.94962 2.84646 2.94962 2.84646 3.23804 3.04891 2.84646 2.71255 3.04891 2.89021 4.48319 4.16267 5.20809 4.6462 3.60502 3.47216 4.16267 3.91404 4.16267 3.91404 4.6462 4.27268 5.20809 4.6462 5.76375 5.05742 4.6462 4.27268 5.05742 4.59069 -1.07047 -0.739415 -1.08217 -0.824766 -0.739415 -0.476883 -0.824766 -0.568071 -1.08217 -0.824766 -1.12848 -0.907343 -0.824766 -0.568071 -0.907343 -0.680859 -0.476883 -0.187165 -0.568071 -0.292072 -0.187165 0.149671 -0.292072 0.0245184 -0.568071 -0.292072 -0.680859 -0.431291 -0.292072 0.0245184 -0.431291 -0.14973 0.149671 0.696954 0.0245184 0.475005 0.0245184 0.475005 -0.14973 0.196578 0.475005 1.09285 0.196578 0.690545 -1.56403 -1.34748 -1.56222 -1.36855 -1.34748 -1.12848 -1.36855 -1.17712 -1.56222 -1.36855 -1.5591 -1.38626 -1.36855 -1.17712 -1.38626 -1.21836 -1.12848 -0.907343 -1.17712 -0.991651 -0.907343 -0.680859 -0.991651 -0.814608 -1.17712 -0.991651 -1.21836 -1.06375 -0.991651 -0.814608 -1.06375 -0.938835 -0.680859 -0.431291 -0.814608 -0.628937 -0.431291 -0.14973 -0.628937 -0.400582 -0.814608 -0.628937 -0.938835 -0.859799 -0.14973 0.196578 -0.400582 -0.117945 -1.5591 -1.38626 -1.55239 -1.3955 -1.38626 -1.21836 -1.3955 -1.24701 -1.21836 -1.06375 -1.24701 -1.10328 -1.06375 -0.938835 -1.10328 -1.00145 -0.938835 -0.859799 -1.00145 -0.985547 4.48319 5.20809 4.16267 4.6462 5.20809 5.76375 4.6462 5.05742 2.1496 2.18982 2.10347 2.20457 2.18982 2.24015 2.20457 2.31333 2.24015 2.37957 2.31333 2.47154 2.37957 2.65518 2.47154 2.69002 3.13195 3.60502 3.04555 3.47216 2.65518 3.04555 2.69002 2.94962 3.04555 3.47216 2.94962 3.23804 3.60502 4.16267 3.47216 3.91404 4.16267 4.6462 3.91404 4.27268 4.6462 5.05742 4.27268 4.59069 1.54529 1.73002 1.55659 1.69625 1.73002 1.86151 1.69625 1.8227 1.55659 1.69625 1.56095 1.68573 1.69625 1.8227 1.68573 1.76736 1.86151 1.98104 1.8227 1.94703 1.98104 2.10347 1.94703 2.06366 1.8227 1.94703 1.76736 1.9284 1.94703 2.06366 1.9284 2.00058 2.10347 2.20457 2.06366 2.18036 2.20457 2.31333 2.18036 2.29901 2.06366 2.18036 2.00058 2.15199 2.18036 2.29901 2.15199 2.26018 2.31333 2.47154 2.29901 2.45358 2.47154 2.69002 2.45358 2.64235 2.29901 2.45358 2.26018 2.38937 2.69002 2.94962 2.64235 2.84646 2.94962 3.23804 2.84646 3.04891 2.84646 3.04891 2.71255 2.89021 2.00058 2.15199 2.07183 2.12524 2.15199 2.26018 2.12524 2.2086 2.07183 2.12524 1.87011 2.08964 2.12524 2.2086 2.08964 2.05877 -1.56603 -1.5652 -1.32183 -1.32902 -1.5652 -1.56403 -1.32902 -1.34748 -1.32183 -1.32902 -1.07047 -1.08217 -1.32902 -1.34748 -1.08217 -1.12848 -1.10843 -0.801058 -0.671014 -0.666219 -0.801058 -1.07047 -0.666219 -0.739415 -0.671014 -0.666219 -0.473889 -0.42063 -0.666219 -0.739415 -0.42063 -0.476883 -0.473889 -0.42063 -0.0696014 -0.116477 -0.42063 -0.476883 -0.116477 -0.187165 -0.0696014 -0.116477 0.259552 0.227775 -0.116477 -0.187165 0.227775 0.149671 0.040629 0.231702 0.485257 0.600421 0.231702 0.259552 0.600421 0.724003 0.485257 0.600421 0.851118 1.09383 0.600421 0.724003 1.09383 1.38248 0.259552 0.227775 0.724003 0.779651 0.227775 0.149671 0.779651 0.696954 2.26018 2.2086 2.38937 2.32192 2.2086 2.05877 2.32192 2.27505 2.38937 2.32192 2.53631 2.44051 2.32192 2.27505 2.44051 2.23397 0.625731 0.851118 0.964901 1.3162 0.625731 0.964901 0.851118 1.3162 0.964901 1.3162 1.3162 1.90305 0.851118 1.09383 1.3162 1.75236 2.53631 2.44051 2.71255 2.5927 2.44051 2.23397 2.5927 2.51748 2.71255 2.5927 2.89021 2.72727 2.5927 2.51748 2.72727 2.42686 0.040629 0.485257 0.231702 0.600421 0.485257 0.851118 0.600421 1.09383 0.231702 0.600421 0.259552 0.724003 0.600421 1.09383 0.724003 1.38248 0.851118 1.3162 1.09383 1.75236 3.23804 3.04891 3.52429 3.24034 3.04891 2.89021 3.24034 3.04377 3.52429 3.24034 3.77132 3.42729 3.24034 3.04377 3.42729 3.18033 -1.10843 -0.671014 -0.801058 -0.666219 -0.671014 -0.473889 -0.666219 -0.42063 -0.801058 -0.666219 -1.07047 -0.739415 -0.666219 -0.42063 -0.739415 -0.476883 -0.473889 -0.0696014 -0.42063 -0.116477 -0.0696014 0.259552 -0.116477 0.227775 -0.42063 -0.116477 -0.476883 -0.187165 -0.116477 0.227775 -0.187165 0.149671 0.259552 0.724003 0.227775 0.779651 0.227775 0.779651 0.149671 0.696954 3.77132 3.42729 4.03299 3.62912 3.42729 3.18033 3.62912 3.29563 4.03299 3.62912 4.22311 3.81251 -1.56603 -1.32183 -1.5652 -1.32902 -1.32183 -1.07047 -1.32902 -1.08217 -1.5652 -1.32902 -1.56403 -1.34748 -1.32902 -1.08217 -1.34748 -1.12848 4.78909 4.22311 4.83742 4.28711 4.83742 4.28711 4.7979 4.30577 4.22311 3.81251 4.28711 3.89134 4.28711 3.89134 4.30577 3.92889 3.89134 3.47271 3.92889 3.44856 6.88098 6.00556 6.45902 5.65769 6.00556 5.39823 5.65769 5.14352 6.45902 5.65769 5.90159 5.36024 5.65769 5.14352 5.36024 4.92953 5.39823 4.7979 5.14352 4.68014 4.7979 4.30577 4.68014 4.27894 5.14352 4.68014 4.92953 4.5311 4.68014 4.27894 4.5311 4.18552 6.88098 6.45902 6.00556 5.65769 6.45902 5.90159 5.65769 5.36024 6.00556 5.65769 5.39823 5.14352 5.65769 5.36024 5.14352 4.92953 5.90159 5.36024 5.36024 5.04837 5.36024 4.92953 5.04837 4.6662 5.36024 5.04837 4.92953 4.6662 4.78909 4.83742 4.22311 4.28711 4.83742 4.7979 4.28711 4.30577 5.39823 5.14352 4.7979 4.68014 5.14352 4.92953 4.68014 4.5311 4.7979 4.68014 4.30577 4.27894 4.68014 4.5311 4.27894 4.18552 3.23804 3.52429 3.04891 3.24034 3.52429 3.77132 3.24034 3.42729 3.04891 3.24034 2.89021 3.04377 3.24034 3.42729 3.04377 3.18033 3.77132 4.03299 3.42729 3.62912 4.03299 4.22311 3.62912 3.81251 3.42729 3.62912 3.18033 3.29563 4.22311 4.28711 3.81251 3.89134 4.28711 4.30577 3.89134 3.92889 3.89134 3.92889 3.47271 3.44856 2.26018 2.38937 2.2086 2.32192 2.38937 2.53631 2.32192 2.44051 2.2086 2.32192 2.05877 2.27505 2.32192 2.44051 2.27505 2.23397 2.53631 2.71255 2.44051 2.5927 2.71255 2.89021 2.5927 2.72727 2.44051 2.5927 2.23397 2.51748 2.5927 2.72727 2.51748 2.42686 -0.668689 -0.205709 -0.0901411 -0.0457498 -0.205709 -0.473889 -0.0457498 -0.0696014 -0.0901411 -0.0457498 0.040629 0.231702 -0.0457498 -0.0696014 0.231702 0.259552 -0.680506 -0.127792 -0.127792 -0.00685797 -0.127792 -0.303283 -0.00685797 0.145239 -0.127792 -0.00685797 -0.303283 0.145239 -0.00685797 0.145239 0.145239 0.364283 -0.303283 0.197507 0.145239 0.347247 0.197507 0.040629 0.347247 0.485257 0.145239 0.347247 0.364283 0.625731 0.347247 0.485257 0.625731 0.851118 -0.303283 0.145239 0.197507 0.347247 0.145239 0.364283 0.347247 0.625731 0.197507 0.347247 0.040629 0.485257 0.347247 0.625731 0.485257 0.851118 -0.668689 -0.0901411 -0.205709 -0.0457498 -0.0901411 0.040629 -0.0457498 0.231702 -0.205709 -0.0457498 -0.473889 -0.0696014 -0.0457498 0.231702 -0.0696014 0.259552 2.89021 2.72727 3.04377 2.86803 2.72727 2.42686 2.86803 2.76115 3.04377 2.86803 3.18033 2.96413 2.86803 2.76115 2.96413 2.59158 3.18033 2.96413 3.29563 3.06133 2.96413 2.59158 3.06133 2.93733 3.29563 3.06133 3.38614 3.1139 3.06133 2.93733 3.1139 2.70279 3.38614 3.1139 3.47271 3.18932 3.1139 2.70279 3.18932 3.04379 3.47271 3.18932 3.44856 3.196 3.18932 3.04379 3.196 2.71905 4.30577 3.92889 4.27894 3.9514 3.92889 3.44856 3.9514 3.76945 4.27894 3.9514 4.18552 3.8716 3.9514 3.76945 3.8716 3.31266 4.92953 4.5311 4.6662 4.33029 4.5311 4.18552 4.33029 4.0391 4.6662 4.33029 4.36544 4.12105 4.33029 4.0391 4.12105 3.73503 4.18552 3.8716 4.0391 3.79676 3.8716 3.31266 3.79676 3.62836 4.0391 3.79676 3.73503 3.70608 3.79676 3.62836 3.70608 3.04582 4.92953 4.6662 4.5311 4.33029 4.6662 4.36544 4.33029 4.12105 4.5311 4.33029 4.18552 4.0391 4.33029 4.12105 4.0391 3.73503 4.36544 4.12105 4.12105 3.95835 4.12105 3.73503 3.95835 3.82823 4.12105 3.95835 3.73503 3.82823 3.95835 3.82823 3.82823 3.17217 4.30577 4.27894 3.92889 3.9514 4.27894 4.18552 3.9514 3.8716 3.92889 3.9514 3.44856 3.76945 3.9514 3.8716 3.76945 3.31266 4.18552 4.0391 3.8716 3.79676 4.0391 3.73503 3.79676 3.70608 3.8716 3.79676 3.31266 3.62836 3.79676 3.70608 3.62836 3.04582 2.89021 3.04377 2.72727 2.86803 3.04377 3.18033 2.86803 2.96413 2.72727 2.86803 2.42686 2.76115 2.86803 2.96413 2.76115 2.59158 3.18033 3.29563 2.96413 3.06133 3.29563 3.38614 3.06133 3.1139 2.96413 3.06133 2.59158 2.93733 3.06133 3.1139 2.93733 2.70279 3.38614 3.47271 3.1139 3.18932 3.47271 3.44856 3.18932 3.196 3.1139 3.18932 2.70279 3.04379 3.18932 3.196 3.04379 2.71905 -1.3955 -1.3945 -1.32472 -1.31865 -1.3945 -1.4188 -1.31865 -1.24102 -1.32472 -1.31865 -1.24701 -1.25377 -1.31865 -1.24102 -1.25377 -1.20207 1.27691 1.74026 1.94067 1.82786 1.74026 1.73002 1.82786 1.81953 1.94067 1.82786 1.8207 1.88562 1.82786 1.81953 1.88562 1.86151 -1.24701 -1.25377 -1.18836 -1.19107 -1.25377 -1.20207 -1.19107 -1.17744 -1.18836 -1.19107 -1.10328 -1.08968 -1.19107 -1.17744 -1.08968 -0.982198 -1.10328 -1.08968 -1.04042 -0.987576 -1.04042 -0.987576 -1.00145 -0.948335 1.8207 1.88562 1.91851 1.9438 1.88562 1.86151 1.9438 1.94065 1.91851 1.9438 1.99989 2.00363 1.9438 1.94065 2.00363 1.98104 2.12767 2.08401 2.14786 2.1496 -1.00145 -0.948335 -1.00693 -0.967087 -1.00693 -0.967087 -0.985547 -0.931721 -0.859799 -0.957089 -0.823765 -0.992718 -0.957089 -0.985547 -0.992718 -1.03691 -0.992718 -1.03691 -1.09193 -1.25419 2.14786 2.1496 2.1281 2.16606 2.1281 2.16606 2.1328 2.18982 2.1328 2.18982 2.13474 2.16797 2.03425 2.13474 1.98427 2.13123 2.13474 2.16797 2.13123 2.24015 0.696954 0.959728 1.15335 1.1004 0.959728 0.475005 1.1004 1.03286 1.15335 1.1004 1.39124 1.30817 1.1004 1.03286 1.30817 1.09285 -0.117945 -0.32542 0.0865359 -0.104184 -0.32542 -0.557357 -0.104184 -0.27636 0.0865359 -0.104184 0.264049 0.0965995 -0.104184 -0.27636 0.0965995 0.0499365 -1.09193 -1.25419 -1.17057 -1.74469 -0.711305 -1.17057 -0.557357 -1.01251 -0.557357 -1.01251 -0.27636 -0.476959 1.38738 1.97553 2.06523 2.29221 2.06523 2.29221 2.59553 2.58603 1.98427 2.13123 1.83575 2.13737 2.13123 2.24015 2.13737 2.20862 1.83575 2.13737 1.97553 2.23206 2.13737 2.20862 2.23206 2.37957 2.45358 2.50716 2.54912 2.54138 2.50716 2.38937 2.54138 2.52464 2.54912 2.54138 2.64235 2.5936 2.54138 2.52464 2.5936 2.53631 1.38248 1.51002 1.77525 1.80557 1.51002 1.51381 1.80557 1.81761 1.77525 1.80557 2.05874 2.12094 1.80557 1.81761 2.12094 2.16809 1.51381 1.46687 1.81761 1.77275 1.46687 1.39124 1.77275 1.69059 1.81761 1.77275 2.16809 2.19867 2.05874 2.12094 2.35298 2.44948 2.12094 2.16809 2.44948 2.53665 2.35298 2.44948 2.66324 2.79331 2.44948 2.53665 2.79331 2.93222 1.39124 1.30817 1.69059 1.60538 1.30817 1.09285 1.60538 1.48119 1.60538 1.48119 2.03609 1.83371 0.264049 0.0965995 0.404004 0.210863 0.0965995 0.0499365 0.210863 0.254298 0.404004 0.210863 0.445078 0.115663 1.27053 0.877132 1.60759 1.1128 0.877132 0.445078 1.1128 0.265946 1.60759 1.1128 2.06917 1.53859 1.1128 0.265946 1.53859 0.312343 0.445078 0.115663 0.265946 -0.591144 2.73687 2.59553 3.06414 2.93267 2.59553 2.58603 2.93267 2.84431 3.06414 2.93267 3.23424 3.17347 2.93267 2.84431 3.17347 3.13195 3.24193 3.23424 3.11645 3.38155 3.11645 3.38155 3.36135 3.62152 2.64235 2.5936 2.67063 2.64906 2.5936 2.53631 2.64906 2.63639 2.67063 2.64906 2.84646 2.68642 2.64906 2.63639 2.68642 2.71255 1.90305 2.22418 2.22418 2.4548 2.22418 2.39811 2.4548 2.68732 2.22418 2.4548 2.39811 2.68732 2.4548 2.68732 2.68732 3.02272 2.39811 2.53779 2.68732 2.90064 2.53779 2.66324 2.90064 3.08612 2.68732 2.90064 3.02272 3.39615 2.39811 2.68732 2.53779 2.90064 2.68732 3.02272 2.90064 3.39615 2.53779 2.90064 2.66324 3.08612 2.66324 2.79331 3.08612 3.23836 2.79331 2.93222 3.23836 3.43042 3.62876 3.26124 4.39879 3.71891 4.39879 3.71891 5.31298 5.32737 2.06917 1.53859 2.68051 2.41985 1.53859 0.312343 2.41985 1.86357 2.68051 2.41985 3.26124 4.00589 3.3731 3.6711 5.72628 4.99307 4.00589 8.02018 2.08459 6.90259 8.02018 5.72628 6.90259 6.34477 5.72628 4.99307 6.34477 5.6958 6.90259 6.34477 6.76823 6.50984 6.34477 5.6958 6.50984 6.09261 2.2764 3.36135 3.6711 3.99913 3.36135 3.62152 3.99913 3.98676 3.6711 3.99913 4.99307 4.70641 3.99913 3.98676 4.70641 4.48319 3.47216 3.54755 3.65836 3.62443 3.54755 3.23804 3.62443 3.56868 3.65836 3.62443 3.91404 3.74483 3.62443 3.56868 3.74483 3.52429 3.91404 3.74483 3.94734 3.88545 3.74483 3.52429 3.88545 3.8199 3.94734 3.88545 4.27268 4.03293 3.88545 3.8199 4.03293 3.77132 1.38248 1.77525 1.51002 1.80557 1.77525 2.05874 1.80557 2.12094 1.51002 1.80557 1.51381 1.81761 1.80557 2.12094 1.81761 2.16809 2.05874 2.35298 2.12094 2.44948 2.35298 2.66324 2.44948 2.79331 2.12094 2.44948 2.16809 2.53665 2.44948 2.79331 2.53665 2.93222 1.51381 1.81761 1.46687 1.77275 1.81761 2.16809 1.77275 2.19867 1.46687 1.77275 1.39124 1.69059 2.66324 3.08612 2.79331 3.23836 2.79331 3.23836 2.93222 3.43042 10.41 11.9092 11.9092 14.9081 7.59334 7.09066 9.31973 8.30274 11.3252 10.1457 12.0289 10.4837 9.53007 8.64432 10.1457 9.15119 10.1457 9.15119 10.4837 9.38891 5.76375 5.58579 6.08021 5.64777 5.58579 5.05742 5.64777 5.30388 5.64777 5.30388 5.7322 5.4039 4.27268 4.03293 4.26423 4.18856 4.03293 3.77132 4.18856 4.10806 4.26423 4.18856 4.59069 4.34912 4.18856 4.10806 4.34912 4.03299 5.05742 4.9702 5.30388 5.03239 4.9702 4.59069 5.03239 4.73916 5.30388 5.03239 5.4039 5.14033 5.03239 4.73916 5.14033 4.78909 4.59069 4.34912 4.73916 4.49225 4.34912 4.03299 4.49225 4.37105 4.73916 4.49225 4.78909 4.52911 4.49225 4.37105 4.52911 4.22311 0.696954 1.15335 0.959728 1.1004 1.15335 1.39124 1.1004 1.30817 0.959728 1.1004 0.475005 1.03286 1.1004 1.30817 1.03286 1.09285 1.39124 1.69059 1.30817 1.60538 1.30817 1.60538 1.09285 1.48119 1.60538 2.03609 1.48119 1.83371 3.62876 4.39879 3.26124 3.71891 4.39879 5.31298 3.71891 5.32737 7.59334 9.31973 7.09066 8.30274 11.3252 12.0289 10.1457 10.4837 7.73606 7.16517 7.62736 7.09167 8.33174 7.62736 8.05504 7.5247 7.62736 7.09167 7.5247 6.88098 5.7322 5.4039 5.83336 5.5031 6.29246 5.83336 6.28323 5.89346 5.83336 5.5031 5.89346 5.5656 7.16517 6.70598 7.09167 6.65258 6.70598 6.28323 6.65258 6.23265 7.09167 6.65258 6.88098 6.6006 6.65258 6.23265 6.6006 6.00556 6.28323 5.89346 6.23265 5.878 5.89346 5.5656 5.878 5.56114 6.23265 5.878 6.00556 5.8