# vtk DataFile Version 3.0
#This file was generated by the deal.II library on 2020/5/27 at 9:05:00
ASCII
DATASET UNSTRUCTURED_GRID

POINTS 13984 double
0 0 0
0.0625 0 0
0 0.0625 0
0.0625 0.0625 0
0.0625 0 0
0.125 0 0
0.0625 0.0625 0
0.125 0.0625 0
0.125 0 0
0.1875 0 0
0.125 0.0625 0
0.1875 0.0625 0
0.1875 0 0
0.25 0 0
0.1875 0.0625 0
0.25 0.0625 0
0.25 0 0
0.3125 0 0
0.25 0.0625 0
0.3125 0.0625 0
0.3125 0 0
0.375 0 0
0.3125 0.0625 0
0.375 0.0625 0
0.375 0 0
0.4375 0 0
0.375 0.0625 0
0.4375 0.0625 0
0.5 0 0
0.5625 0 0
0.5 0.0625 0
0.5625 0.0625 0
0.75 0 0
0.8125 0 0
0.75 0.0625 0
0.8125 0.0625 0
0.8125 0 0
0.875 0 0
0.8125 0.0625 0
0.875 0.0625 0
0.875 0 0
0.9375 0 0
0.875 0.0625 0
0.9375 0.0625 0
0.9375 0 0
1 0 0
0.9375 0.0625 0
1 0.0625 0
0 0.0625 0
0.0625 0.0625 0
0 0.125 0
0.0625 0.125 0
0.0625 0.0625 0
0.125 0.0625 0
0.0625 0.125 0
0.125 0.125 0
0.125 0.0625 0
0.1875 0.0625 0
0.125 0.125 0
0.1875 0.125 0
0.1875 0.0625 0
0.25 0.0625 0
0.1875 0.125 0
0.25 0.125 0
0.25 0.0625 0
0.3125 0.0625 0
0.25 0.125 0
0.3125 0.125 0
0.75 0.0625 0
0.8125 0.0625 0
0.75 0.125 0
0.8125 0.125 0
0.8125 0.0625 0
0.875 0.0625 0
0.8125 0.125 0
0.875 0.125 0
0.875 0.0625 0
0.9375 0.0625 0
0.875 0.125 0
0.9375 0.125 0
0.9375 0.0625 0
1 0.0625 0
0.9375 0.125 0
1 0.125 0
0 0.125 0
0.0625 0.125 0
0 0.1875 0
0.0625 0.1875 0
0.0625 0.125 0
0.125 0.125 0
0.0625 0.1875 0
0.125 0.1875 0
0.125 0.125 0
0.1875 0.125 0
0.125 0.1875 0
0.1875 0.1875 0
0.8125 0.125 0
0.875 0.125 0
0.8125 0.1875 0
0.875 0.1875 0
0.875 0.125 0
0.9375 0.125 0
0.875 0.1875 0
0.9375 0.1875 0
0.9375 0.125 0
1 0.125 0
0.9375 0.1875 0
1 0.1875 0
0 0.1875 0
0.0625 0.1875 0
0 0.25 0
0.0625 0.25 0
0.0625 0.1875 0
0.125 0.1875 0
0.0625 0.25 0
0.125 0.25 0
0.8125 0.1875 0
0.875 0.1875 0
0.8125 0.25 0
0.875 0.25 0
0.875 0.1875 0
0.9375 0.1875 0
0.875 0.25 0
0.9375 0.25 0
0.9375 0.1875 0
1 0.1875 0
0.9375 0.25 0
1 0.25 0
0 0.25 0
0.0625 0.25 0
0 0.3125 0
0.0625 0.3125 0
0.0625 0.25 0
0.125 0.25 0
0.0625 0.3125 0
0.125 0.3125 0
0.8125 0.25 0
0.875 0.25 0
0.8125 0.3125 0
0.875 0.3125 0
0.875 0.25 0
0.9375 0.25 0
0.875 0.3125 0
0.9375 0.3125 0
0.9375 0.25 0
1 0.25 0
0.9375 0.3125 0
1 0.3125 0
0 0.3125 0
0.0625 0.3125 0
0 0.375 0
0.0625 0.375 0
0.875 0.3125 0
0.9375 0.3125 0
0.875 0.375 0
0.9375 0.375 0
0.9375 0.3125 0
1 0.3125 0
0.9375 0.375 0
1 0.375 0
0 0.375 0
0.0625 0.375 0
0 0.4375 0
0.0625 0.4375 0
0.875 0.375 0
0.9375 0.375 0
0.875 0.4375 0
0.9375 0.4375 0
0.9375 0.375 0
1 0.375 0
0.9375 0.4375 0
1 0.4375 0
0.875 0.4375 0
0.9375 0.4375 0
0.875 0.5 0
0.9375 0.5 0
0.9375 0.4375 0
1 0.4375 0
0.9375 0.5 0
1 0.5 0
0 0.5 0
0.0625 0.5 0
0 0.5625 0
0.0625 0.5625 0
0.8125 0.5 0
0.875 0.5 0
0.8125 0.5625 0
0.875 0.5625 0
0.875 0.5 0
0.9375 0.5 0
0.875 0.5625 0
0.9375 0.5625 0
0.9375 0.5 0
1 0.5 0
0.9375 0.5625 0
1 0.5625 0
0.8125 0.5625 0
0.875 0.5625 0
0.8125 0.625 0
0.875 0.625 0
0.875 0.5625 0
0.9375 0.5625 0
0.875 0.625 0
0.9375 0.625 0
0.9375 0.5625 0
1 0.5625 0
0.9375 0.625 0
1 0.625 0
0.75 0.625 0
0.8125 0.625 0
0.75 0.6875 0
0.8125 0.6875 0
0.8125 0.625 0
0.875 0.625 0
0.8125 0.6875 0
0.875 0.6875 0
0.875 0.625 0
0.9375 0.625 0
0.875 0.6875 0
0.9375 0.6875 0
0.9375 0.625 0
1 0.625 0
0.9375 0.6875 0
1 0.6875 0
0.6875 0.6875 0
0.75 0.6875 0
0.6875 0.75 0
0.75 0.75 0
0.75 0.6875 0
0.8125 0.6875 0
0.75 0.75 0
0.8125 0.75 0
0.8125 0.6875 0
0.875 0.6875 0
0.8125 0.75 0
0.875 0.75 0
0.875 0.6875 0
0.9375 0.6875 0
0.875 0.75 0
0.9375 0.75 0
0.9375 0.6875 0
1 0.6875 0
0.9375 0.75 0
1 0.75 0
0 0.75 0
0.0625 0.75 0
0 0.8125 0
0.0625 0.8125 0
0.0625 0.75 0
0.125 0.75 0
0.0625 0.8125 0
0.125 0.8125 0
0.625 0.75 0
0.6875 0.75 0
0.625 0.8125 0
0.6875 0.8125 0
0.6875 0.75 0
0.75 0.75 0
0.6875 0.8125 0
0.75 0.8125 0
0.75 0.75 0
0.8125 0.75 0
0.75 0.8125 0
0.8125 0.8125 0
0.8125 0.75 0
0.875 0.75 0
0.8125 0.8125 0
0.875 0.8125 0
0.875 0.75 0
0.9375 0.75 0
0.875 0.8125 0
0.9375 0.8125 0
0.9375 0.75 0
1 0.75 0
0.9375 0.8125 0
1 0.8125 0
0 0.8125 0
0.0625 0.8125 0
0 0.875 0
0.0625 0.875 0
0.0625 0.8125 0
0.125 0.8125 0
0.0625 0.875 0
0.125 0.875 0
0.125 0.8125 0
0.1875 0.8125 0
0.125 0.875 0
0.1875 0.875 0
0.1875 0.8125 0
0.25 0.8125 0
0.1875 0.875 0
0.25 0.875 0
0.25 0.8125 0
0.3125 0.8125 0
0.25 0.875 0
0.3125 0.875 0
0.5 0.8125 0
0.5625 0.8125 0
0.5 0.875 0
0.5625 0.875 0
0.5625 0.8125 0
0.625 0.8125 0
0.5625 0.875 0
0.625 0.875 0
0.625 0.8125 0
0.6875 0.8125 0
0.625 0.875 0
0.6875 0.875 0
0.6875 0.8125 0
0.75 0.8125 0
0.6875 0.875 0
0.75 0.875 0
0.75 0.8125 0
0.8125 0.8125 0
0.75 0.875 0
0.8125 0.875 0
0.8125 0.8125 0
0.875 0.8125 0
0.8125 0.875 0
0.875 0.875 0
0.875 0.8125 0
0.9375 0.8125 0
0.875 0.875 0
0.9375 0.875 0
0.9375 0.8125 0
1 0.8125 0
0.9375 0.875 0
1 0.875 0
0 0.875 0
0.0625 0.875 0
0 0.9375 0
0.0625 0.9375 0
0.0625 0.875 0
0.125 0.875 0
0.0625 0.9375 0
0.125 0.9375 0
0.125 0.875 0
0.1875 0.875 0
0.125 0.9375 0
0.1875 0.9375 0
0.1875 0.875 0
0.25 0.875 0
0.1875 0.9375 0
0.25 0.9375 0
0.25 0.875 0
0.3125 0.875 0
0.25 0.9375 0
0.3125 0.9375 0
0.3125 0.875 0
0.375 0.875 0
0.3125 0.9375 0
0.375 0.9375 0
0.375 0.875 0
0.4375 0.875 0
0.375 0.9375 0
0.4375 0.9375 0
0.4375 0.875 0
0.5 0.875 0
0.4375 0.9375 0
0.5 0.9375 0
0.5 0.875 0
0.5625 0.875 0
0.5 0.9375 0
0.5625 0.9375 0
0.5625 0.875 0
0.625 0.875 0
0.5625 0.9375 0
0.625 0.9375 0
0.625 0.875 0
0.6875 0.875 0
0.625 0.9375 0
0.6875 0.9375 0
0.6875 0.875 0
0.75 0.875 0
0.6875 0.9375 0
0.75 0.9375 0
0.75 0.875 0
0.8125 0.875 0
0.75 0.9375 0
0.8125 0.9375 0
0.8125 0.875 0
0.875 0.875 0
0.8125 0.9375 0
0.875 0.9375 0
0.875 0.875 0
0.9375 0.875 0
0.875 0.9375 0
0.9375 0.9375 0
0.9375 0.875 0
1 0.875 0
0.9375 0.9375 0
1 0.9375 0
0 0.9375 0
0.0625 0.9375 0
0 1 0
0.0625 1 0
0.0625 0.9375 0
0.125 0.9375 0
0.0625 1 0
0.125 1 0
0.125 0.9375 0
0.1875 0.9375 0
0.125 1 0
0.1875 1 0
0.1875 0.9375 0
0.25 0.9375 0
0.1875 1 0
0.25 1 0
0.25 0.9375 0
0.3125 0.9375 0
0.25 1 0
0.3125 1 0
0.3125 0.9375 0
0.375 0.9375 0
0.3125 1 0
0.375 1 0
0.375 0.9375 0
0.4375 0.9375 0
0.375 1 0
0.4375 1 0
0.4375 0.9375 0
0.5 0.9375 0
0.4375 1 0
0.5 1 0
0.5 0.9375 0
0.5625 0.9375 0
0.5 1 0
0.5625 1 0
0.5625 0.9375 0
0.625 0.9375 0
0.5625 1 0
0.625 1 0
0.625 0.9375 0
0.6875 0.9375 0
0.625 1 0
0.6875 1 0
0.6875 0.9375 0
0.75 0.9375 0
0.6875 1 0
0.75 1 0
0.75 0.9375 0
0.8125 0.9375 0
0.75 1 0
0.8125 1 0
0.8125 0.9375 0
0.875 0.9375 0
0.8125 1 0
0.875 1 0
0.875 0.9375 0
0.9375 0.9375 0
0.875 1 0
0.9375 1 0
0.9375 0.9375 0
1 0.9375 0
0.9375 1 0
1 1 0
0.3125 0.0625 0
0.34375 0.0625 0
0.3125 0.09375 0
0.34375 0.09375 0
0.34375 0.0625 0
0.375 0.0625 0
0.34375 0.09375 0
0.375 0.09375 0
0.3125 0.09375 0
0.34375 0.09375 0
0.3125 0.125 0
0.34375 0.125 0
0.34375 0.09375 0
0.375 0.09375 0
0.34375 0.125 0
0.375 0.125 0
0.5625 0 0
0.59375 0 0
0.5625 0.03125 0
0.59375 0.03125 0
0.5625 0.03125 0
0.59375 0.03125 0
0.5625 0.0625 0
0.59375 0.0625 0
0.6875 0 0
0.71875 0 0
0.6875 0.03125 0
0.71875 0.03125 0
0.71875 0 0
0.75 0 0
0.71875 0.03125 0
0.75 0.03125 0
0.6875 0.03125 0
0.71875 0.03125 0
0.6875 0.0625 0
0.71875 0.0625 0
0.71875 0.03125 0
0.75 0.03125 0
0.71875 0.0625 0
0.75 0.0625 0
0.4375 0.0625 0
0.46875 0.0625 0
0.4375 0.09375 0
0.46875 0.09375 0
0.46875 0.0625 0
0.5 0.0625 0
0.46875 0.09375 0
0.5 0.09375 0
0.4375 0.09375 0
0.46875 0.09375 0
0.4375 0.125 0
0.46875 0.125 0
0.46875 0.09375 0
0.5 0.09375 0
0.46875 0.125 0
0.5 0.125 0
0.5 0.0625 0
0.53125 0.0625 0
0.5 0.09375 0
0.53125 0.09375 0
0.53125 0.0625 0
0.5625 0.0625 0
0.53125 0.09375 0
0.5625 0.09375 0
0.5 0.09375 0
0.53125 0.09375 0
0.5 0.125 0
0.53125 0.125 0
0.53125 0.09375 0
0.5625 0.09375 0
0.53125 0.125 0
0.5625 0.125 0
0.5625 0.0625 0
0.59375 0.0625 0
0.5625 0.09375 0
0.59375 0.09375 0
0.5625 0.09375 0
0.59375 0.09375 0
0.5625 0.125 0
0.59375 0.125 0
0.6875 0.0625 0
0.71875 0.0625 0
0.6875 0.09375 0
0.71875 0.09375 0
0.71875 0.0625 0
0.75 0.0625 0
0.71875 0.09375 0
0.75 0.09375 0
0.6875 0.09375 0
0.71875 0.09375 0
0.6875 0.125 0
0.71875 0.125 0
0.71875 0.09375 0
0.75 0.09375 0
0.71875 0.125 0
0.75 0.125 0
0.4375 0.125 0
0.46875 0.125 0
0.4375 0.15625 0
0.46875 0.15625 0
0.46875 0.125 0
0.5 0.125 0
0.46875 0.15625 0
0.5 0.15625 0
0.4375 0.15625 0
0.46875 0.15625 0
0.4375 0.1875 0
0.46875 0.1875 0
0.46875 0.15625 0
0.5 0.15625 0
0.46875 0.1875 0
0.5 0.1875 0
0.5 0.125 0
0.53125 0.125 0
0.5 0.15625 0
0.53125 0.15625 0
0.53125 0.125 0
0.5625 0.125 0
0.53125 0.15625 0
0.5625 0.15625 0
0.5 0.15625 0
0.53125 0.15625 0
0.5 0.1875 0
0.53125 0.1875 0
0.65625 0.15625 0
0.6875 0.15625 0
0.65625 0.1875 0
0.6875 0.1875 0
0.6875 0.125 0
0.71875 0.125 0
0.6875 0.15625 0
0.71875 0.15625 0
0.71875 0.125 0
0.75 0.125 0
0.71875 0.15625 0
0.75 0.15625 0
0.6875 0.15625 0
0.71875 0.15625 0
0.6875 0.1875 0
0.71875 0.1875 0
0.71875 0.15625 0
0.75 0.15625 0
0.71875 0.1875 0
0.75 0.1875 0
0.75 0.125 0
0.78125 0.125 0
0.75 0.15625 0
0.78125 0.15625 0
0.78125 0.125 0
0.8125 0.125 0
0.78125 0.15625 0
0.8125 0.15625 0
0.75 0.15625 0
0.78125 0.15625 0
0.75 0.1875 0
0.78125 0.1875 0
0.78125 0.15625 0
0.8125 0.15625 0
0.78125 0.1875 0
0.8125 0.1875 0
0.46875 0.1875 0
0.5 0.1875 0
0.46875 0.21875 0
0.5 0.21875 0
0.5 0.1875 0
0.53125 0.1875 0
0.5 0.21875 0
0.53125 0.21875 0
0.65625 0.1875 0
0.6875 0.1875 0
0.65625 0.21875 0
0.6875 0.21875 0
0.65625 0.21875 0
0.6875 0.21875 0
0.65625 0.25 0
0.6875 0.25 0
0.6875 0.1875 0
0.71875 0.1875 0
0.6875 0.21875 0
0.71875 0.21875 0
0.71875 0.1875 0
0.75 0.1875 0
0.71875 0.21875 0
0.75 0.21875 0
0.6875 0.21875 0
0.71875 0.21875 0
0.6875 0.25 0
0.71875 0.25 0
0.65625 0.25 0
0.6875 0.25 0
0.65625 0.28125 0
0.6875 0.28125 0
0.625 0.28125 0
0.65625 0.28125 0
0.625 0.3125 0
0.65625 0.3125 0
0.65625 0.28125 0
0.6875 0.28125 0
0.65625 0.3125 0
0.6875 0.3125 0
0.6875 0.25 0
0.71875 0.25 0
0.6875 0.28125 0
0.71875 0.28125 0
0.6875 0.28125 0
0.71875 0.28125 0
0.6875 0.3125 0
0.71875 0.3125 0
0.71875 0.28125 0
0.75 0.28125 0
0.71875 0.3125 0
0.75 0.3125 0
0.625 0.3125 0
0.65625 0.3125 0
0.625 0.34375 0
0.65625 0.34375 0
0.625 0.34375 0
0.65625 0.34375 0
0.625 0.375 0
0.65625 0.375 0
0.625 0.375 0
0.65625 0.375 0
0.625 0.40625 0
[...]
POINT_DATA 13984
SCALARS solution double 1
LOOKUP_TABLE default
-1.56921 -1.56906 -1.56906 -1.58687 -1.56906 -1.56887 -1.58687 -1.6048 -1.56887 -1.56861 -1.6048 -1.62276 -1.56861 -1.56827 -1.62276 -1.64118 -1.56827 -1.5678 -1.64118 -1.66911 -1.5678 -1.56712 -1.66911 -1.69472 -1.56712 -1.56603 -1.69472 -1.70954 -1.56403 -1.5591 -1.71348 -1.71395 1.56095 1.5647 1.52589 1.53864 1.5647 1.56638 1.53864 1.54858 1.56638 1.56733 1.54858 1.55839 1.56733 1.56795 1.55839 1.56799 -1.56906 -1.58687 -1.56887 -1.6048 -1.58687 -1.6048 -1.6048 -1.64244 -1.6048 -1.62276 -1.64244 -1.6913 -1.62276 -1.64118 -1.6913 -1.74166 -1.64118 -1.66911 -1.74166 -1.79421 1.52589 1.53864 1.47212 1.50335 1.53864 1.54858 1.50335 1.52969 1.54858 1.55839 1.52969 1.54935 1.55839 1.56799 1.54935 1.56805 -1.56887 -1.6048 -1.56861 -1.62276 -1.6048 -1.64244 -1.62276 -1.6913 -1.64244 -1.6913 -1.6913 -1.77911 1.50335 1.52969 1.46449 1.51062 1.52969 1.54935 1.51062 1.54048 1.54935 1.56805 1.54048 1.56814 -1.56861 -1.62276 -1.56827 -1.64118 -1.62276 -1.6913 -1.64118 -1.74166 1.46449 1.51062 1.43445 1.49284 1.51062 1.54048 1.49284 1.53244 1.54048 1.56814 1.53244 1.56825 -1.56827 -1.64118 -1.5678 -1.66911 -1.64118 -1.74166 -1.66911 -1.79421 1.43445 1.49284 1.39631 1.47099 1.49284 1.53244 1.47099 1.5262 1.53244 1.56825 1.5262 1.56836 -1.5678 -1.66911 -1.56712 -1.69472 1.47099 1.5262 1.45333 1.5222 1.5262 1.56836 1.5222 1.56849 -1.56712 -1.69472 -1.56603 -1.70954 1.45333 1.5222 1.45036 1.5206 1.5222 1.56849 1.5206 1.56861 1.45036 1.5206 1.46023 1.52105 1.5206 1.56861 1.52105 1.56874 -1.56403 -1.71348 -1.5591 -1.71395 1.379 1.46023 1.40265 1.47433 1.46023 1.52105 1.47433 1.52361 1.52105 1.56874 1.52361 1.56886 1.40265 1.47433 1.43015 1.48539 1.47433 1.52361 1.48539 1.52822 1.52361 1.56886 1.52822 1.56897 1.35641 1.43015 1.40827 1.45864 1.43015 1.48539 1.45864 1.49773 1.48539 1.52822 1.49773 1.53397 1.52822 1.56897 1.53397 1.56908 1.34261 1.40827 1.40827 1.44928 1.40827 1.45864 1.44928 1.48123 1.45864 1.49773 1.48123 1.5114 1.49773 1.53397 1.5114 1.54056 1.53397 1.56908 1.54056 1.56918 1.56095 1.52589 1.5647 1.53864 1.52589 1.47212 1.53864 1.50335 1.35641 1.40827 1.43015 1.45864 1.40827 1.44928 1.45864 1.48123 1.44928 1.48123 1.48123 1.50358 1.48123 1.5114 1.50358 1.52574 1.5114 1.54056 1.52574 1.54761 1.54056 1.56918 1.54761 1.56928 1.5647 1.53864 1.56638 1.54858 1.53864 1.50335 1.54858 1.52969 1.50335 1.46449 1.52969 1.51062 1.46449 1.43445 1.51062 1.49284 1.43445 1.39631 1.49284 1.47099 1.379 1.40265 1.46023 1.47433 1.40265 1.43015 1.47433 1.48539 1.43015 1.45864 1.48539 1.49773 1.45864 1.48123 1.49773 1.5114 1.48123 1.50358 1.5114 1.52574 1.50358 1.52574 1.52574 1.5403 1.52574 1.54761 1.5403 1.55486 1.54761 1.56928 1.55486 1.56937 1.56638 1.54858 1.56733 1.55839 1.54858 1.52969 1.55839 1.54935 1.52969 1.51062 1.54935 1.54048 1.51062 1.49284 1.54048 1.53244 1.49284 1.47099 1.53244 1.5262 1.47099 1.45333 1.5262 1.5222 1.45333 1.45036 1.5222 1.5206 1.45036 1.46023 1.5206 1.52105 1.46023 1.47433 1.52105 1.52361 1.47433 1.48539 1.52361 1.52822 1.48539 1.49773 1.52822 1.53397 1.49773 1.5114 1.53397 1.54056 1.5114 1.52574 1.54056 1.54761 1.52574 1.5403 1.54761 1.55486 1.5403 1.55486 1.55486 1.56216 1.55486 1.56937 1.56216 1.56945 1.56733 1.55839 1.56795 1.56799 1.55839 1.54935 1.56799 1.56805 1.54935 1.54048 1.56805 1.56814 1.54048 1.53244 1.56814 1.56825 1.53244 1.5262 1.56825 1.56836 1.5262 1.5222 1.56836 1.56849 1.5222 1.5206 1.56849 1.56861 1.5206 1.52105 1.56861 1.56874 1.52105 1.52361 1.56874 1.56886 1.52361 1.52822 1.56886 1.56897 1.52822 1.53397 1.56897 1.56908 1.53397 1.54056 1.56908 1.56918 1.54056 1.54761 1.56918 1.56928 1.54761 1.55486 1.56928 1.56937 1.55486 1.56216 1.56937 1.56945 1.56216 1.56945 1.56945 1.56952 -1.66911 -1.75807 -1.77625 -1.78736 -1.75807 -1.69472 -1.78736 -1.79354 -1.77625 -1.78736 -1.79421 -1.83069 -1.78736 -1.79354 -1.83069 -1.84558 -1.5591 -1.55239 -1.64218 -1.64345 -1.64218 -1.64345 -1.71395 -1.72129 1.54529 1.55659 1.53756 1.53983 1.55659 1.56095 1.53983 1.54079 1.53756 1.53983 1.51511 1.51773 1.53983 1.54079 1.51773 1.52589 -1.70954 -1.7201 -1.799 -1.79833 -1.7201 -1.71348 -1.79833 -1.80555 -1.799 -1.79833 -1.86301 -1.86886 -1.79833 -1.80555 -1.86886 -1.87403 -1.71348 -1.78072 -1.80555 -1.81374 -1.78072 -1.71395 -1.81374 -1.80172 -1.80555 -1.81374 -1.87403 -1.87362 -1.81374 -1.80172 -1.87362 -1.86788 -1.71395 -1.72129 -1.80172 -1.78773 -1.80172 -1.78773 -1.86788 -1.84765 1.51511 1.51773 1.48071 1.48864 1.51773 1.52589 1.48864 1.49165 1.48071 1.48864 1.4435 1.45657 1.48864 1.49165 1.45657 1.47212 -1.86301 -1.86886 -1.92794 -1.93925 -1.86886 -1.87403 -1.93925 -1.94684 -1.92794 -1.93925 -2.01953 -2.02684 -1.93925 -1.94684 -2.02684 -2.02825 -1.87403 -1.87362 -1.94684 -1.94812 -1.87362 -1.86788 -1.94812 -1.94287 -1.94684 -1.94812 -2.02825 -2.03539 1.36364 1.40092 1.32392 1.36176 1.4435 1.45657 1.40092 1.42128 1.45657 1.47212 1.42128 1.43459 1.40092 1.42128 1.36176 1.3875 1.42128 1.43459 1.3875 1.40888 1.47212 1.45644 1.43459 1.44439 1.45644 1.50335 1.44439 1.45384 1.43459 1.44439 1.40888 1.42723 1.44439 1.45384 1.42723 1.46449 -2.02684 -2.02825 -2.14125 -2.14004 -2.02825 -2.03539 -2.14004 -2.13758 1.32392 1.36176 1.28206 1.32269 1.28206 1.32269 1.23589 1.28279 1.36176 1.3875 1.32269 1.35243 1.3875 1.40888 1.35243 1.38409 1.32269 1.35243 1.28279 1.31779 1.23589 1.28279 1.18602 1.24696 1.10211 1.18602 1.03559 1.13771 1.18602 1.24696 1.13771 1.21934 1.28279 1.31779 1.24696 1.29198 1.24696 1.29198 1.21934 1.27406 1.29198 1.33577 1.27406 1.31565 1.03559 1.13771 0.98713 1.09771 0.98713 1.09771 0.97564 1.08042 0.97564 1.08042 0.991994 1.07843 -1.70954 -1.799 -1.7201 -1.79833 -1.799 -1.86301 -1.79833 -1.86886 -1.7201 -1.79833 -1.71348 -1.80555 -1.79833 -1.86886 -1.80555 -1.87403 -1.86301 -1.92794 -1.86886 -1.93925 -1.92794 -2.01953 -1.93925 -2.02684 -1.86886 -1.93925 -1.87403 -1.94684 -1.93925 -2.02684 -1.94684 -2.02825 -2.02684 -2.14125 -2.02825 -2.14004 -1.6913 -1.77842 -1.784 -1.79988 -1.77842 -1.74166 -1.79988 -1.81888 -1.784 -1.79988 -1.77911 -1.82677 -1.79988 -1.81888 -1.82677 -1.85478 -1.71348 -1.80555 -1.78072 -1.81374 -1.80555 -1.87403 -1.81374 -1.87362 -1.78072 -1.81374 -1.71395 -1.80172 -1.81374 -1.87362 -1.80172 -1.86788 -1.87403 -1.94684 -1.87362 -1.94812 -1.94684 -2.02825 -1.94812 -2.03539 -1.87362 -1.94812 -1.86788 -1.94287 -2.02825 -2.14004 -2.03539 -2.13758 -1.5591 -1.64218 -1.55239 -1.64345 -1.64218 -1.71395 -1.64345 -1.72129 -1.71395 -1.80172 -1.72129 -1.78773 -1.80172 -1.86788 -1.78773 -1.84765 1.36364 1.32392 1.40092 1.36176 1.32392 1.28206 1.36176 1.32269 1.28206 1.23589 1.32269 1.28279 1.10211 1.03559 1.18602 1.13771 1.23589 1.18602 1.28279 1.24696 1.18602 1.13771 1.24696 1.21934 1.03559 0.98713 1.13771 1.09771 0.98713 0.97564 1.09771 1.08042 0.97564 0.991994 1.08042 1.07843 1.54529 1.53756 1.55659 1.53983 1.53756 1.51511 1.53983 1.51773 1.55659 1.53983 1.56095 1.54079 1.53983 1.51773 1.54079 1.52589 1.51511 1.48071 1.51773 1.48864 1.48071 1.4435 1.48864 1.45657 1.51773 1.48864 1.52589 1.49165 1.48864 1.45657 1.49165 1.47212 1.4435 1.40092 1.45657 1.42128 1.40092 1.36176 1.42128 1.3875 1.45657 1.42128 1.47212 1.43459 1.42128 1.3875 1.43459 1.40888 1.36176 1.32269 1.3875 1.35243 1.32269 1.28279 1.35243 1.31779 1.3875 1.35243 1.40888 1.38409 1.28279 1.24696 1.31779 1.29198 1.24696 1.21934 1.29198 1.27406 1.29198 1.27406 1.33577 1.31565 1.47212 1.43459 1.45644 1.44439 1.43459 1.40888 1.44439 1.42723 1.45644 1.44439 1.50335 1.45384 1.44439 1.42723 1.45384 1.46449 -1.56603 -1.5652 -1.64171 -1.64235 -1.5652 -1.56403 -1.64235 -1.64212 -1.64171 -1.64235 -1.70954 -1.7201 -1.64235 -1.64212 -1.7201 -1.71348 -1.69472 -1.77178 -1.79354 -1.80328 -1.77178 -1.70954 -1.80328 -1.799 -1.79354 -1.80328 -1.84558 -1.85618 -1.80328 -1.799 -1.85618 -1.86301 -1.84558 -1.85618 -1.89905 -1.91485 -1.85618 -1.86301 -1.91485 -1.92794 -1.89905 -1.91485 -1.96749 -2.00099 -1.91485 -1.92794 -2.00099 -2.01953 -1.90788 -1.93351 -1.95547 -1.99751 -1.93351 -1.96749 -1.99751 -2.05491 -1.95547 -1.99751 -2.01546 -2.0773 1.40888 1.42723 1.38409 1.4066 1.42723 1.46449 1.4066 1.41904 1.38409 1.4066 1.36056 1.38857 1.4066 1.41904 1.38857 1.43445 -1.96694 -2.01546 -2.02651 -2.0893 -1.96694 -2.02651 -2.01546 -2.0893 1.36056 1.38857 1.33577 1.3663 1.38857 1.43445 1.3663 1.38192 1.33577 1.3663 1.31565 1.35182 1.3663 1.38192 1.35182 1.39631 -1.90788 -1.95547 -1.93351 -1.99751 -1.95547 -2.01546 -1.99751 -2.0773 -1.93351 -1.99751 -1.96749 -2.05491 1.21934 1.27406 1.20004 1.2616 1.27406 1.31565 1.2616 1.30375 1.20004 1.2616 1.18624 1.25093 1.2616 1.30375 1.25093 1.29599 -1.69472 -1.79354 -1.77178 -1.80328 -1.79354 -1.84558 -1.80328 -1.85618 -1.77178 -1.80328 -1.70954 -1.799 -1.80328 -1.85618 -1.799 -1.86301 -1.84558 -1.89905 -1.85618 -1.91485 -1.89905 -1.96749 -1.91485 -2.00099 -1.85618 -1.91485 -1.86301 -1.92794 -1.91485 -2.00099 -1.92794 -2.01953 1.18624 1.25093 1.17333 1.24032 1.25093 1.29599 1.24032 1.29368 1.17333 1.24032 1.16876 1.23426 -1.56603 -1.64171 -1.5652 -1.64235 -1.64171 -1.70954 -1.64235 -1.7201 -1.5652 -1.64235 -1.56403 -1.64212 -1.64235 -1.7201 -1.64212 -1.71348 1.16876 1.23426 1.17834 1.24152 1.17834 1.24152 1.20101 1.25241 1.24152 1.29324 1.25241 1.29437 1.04625 1.10152 1.09039 1.14375 1.09039 1.14375 1.1216 1.17183 1.10152 1.14646 1.14375 1.18382 1.14646 1.20101 1.18382 1.22381 1.14375 1.18382 1.17183 1.20854 1.18382 1.22381 1.20854 1.24221 1.04625 1.09039 1.10152 1.14375 1.09039 1.1216 1.14375 1.17183 1.1216 1.17183 1.15825 1.20125 1.1216 1.15825 1.17183 1.20125 1.10152 1.14375 1.14646 1.18382 1.14375 1.17183 1.18382 1.20854 1.14646 1.18382 1.20101 1.22381 1.18382 1.20854 1.22381 1.24221 1.21934 1.20004 1.27406 1.2616 1.20004 1.18624 1.2616 1.25093 1.27406 1.2616 1.31565 1.30375 1.2616 1.25093 1.30375 1.29599 1.18624 1.17333 1.25093 1.24032 1.17333 1.16876 1.24032 1.23426 1.25093 1.24032 1.29599 1.29368 1.16876 1.17834 1.23426 1.24152 1.17834 1.20101 1.24152 1.25241 1.24152 1.25241 1.29324 1.29437 1.40888 1.38409 1.42723 1.4066 1.38409 1.36056 1.4066 1.38857 1.42723 1.4066 1.46449 1.41904 1.4066 1.38857 1.41904 1.43445 1.36056 1.33577 1.38857 1.3663 1.33577 1.31565 1.3663 1.35182 1.38857 1.3663 1.43445 1.38192 1.3663 1.35182 1.38192 1.39631 -1.79421 -1.83069 -1.86169 -1.88071 -1.83069 -1.84558 -1.88071 -1.89905 -1.86169 -1.88071 -1.90788 -1.93351 -1.88071 -1.89905 -1.93351 -1.96749 -1.77911 -1.82677 -1.82677 -1.85712 -1.82677 -1.85478 -1.85712 -1.88817 -1.82677 -1.85712 -1.85478 -1.88817 -1.85712 -1.88817 -1.88817 -1.92317 -1.85478 -1.88198 -1.88817 -1.92144 -1.88198 -1.90788 -1.92144 -1.95547 -1.88817 -1.92144 -1.92317 -1.96694 -1.92144 -1.95547 -1.96694 -2.01546 -1.85478 -1.88817 -1.88198 -1.92144 -1.88817 -1.92317 -1.92144 -1.96694 -1.88198 -1.92144 -1.90788 -1.95547 -1.92144 -1.96694 -1.95547 -2.01546 -1.79421 -1.86169 -1.83069 -1.88071 -1.86169 -1.90788 -1.88071 -1.93351 -1.83069 -1.88071 -1.84558 -1.89905 -1.88071 -1.93351 -1.89905 -1.96749 1.31565 1.35182 1.30375 1.34089 1.35182 1.39631 1.34089 1.37358 1.30375 1.34089 1.29599 1.33406 1.34089 1.37358 1.33406 1.36651 1.29599 1.33406 1.29368 1.33233 1.33406 1.36651 1.33233 1.3635 1.29368 1.33233 1.29441 1.33273 1.33233 1.3635 1.33273 1.36311 1.29441 1.33273 1.29324 1.33197 1.33273 1.36311 1.33197 1.36472 1.29324 1.33197 1.29437 1.33152 1.33197 1.36472 1.33152 1.379 1.20101 1.25241 1.22381 1.26306 1.25241 1.29437 1.26306 1.30064 1.22381 1.26306 1.24221 1.2755 1.26306 1.30064 1.2755 1.31334 1.17183 1.20854 1.20125 1.23415 1.20854 1.24221 1.23415 1.26316 1.20125 1.23415 1.2337 1.25973 1.23415 1.26316 1.25973 1.28508 1.24221 1.2755 1.26316 1.29458 1.26316 1.29458 1.28508 1.31282 1.29458 1.32976 1.31282 1.35641 1.17183 1.20125 1.20854 1.23415 1.20125 1.2337 1.23415 1.25973 1.20854 1.23415 1.24221 1.26316 1.23415 1.25973 1.26316 1.28508 1.2337 1.25973 1.25973 1.28337 1.25973 1.28508 1.28337 1.30637 1.25973 1.28337 1.28508 1.30637 1.28337 1.30637 1.30637 1.34261 1.20101 1.22381 1.25241 1.26306 1.22381 1.24221 1.26306 1.2755 1.25241 1.26306 1.29437 1.30064 1.26306 1.2755 1.30064 1.31334 1.24221 1.26316 1.2755 1.29458 1.26316 1.28508 1.29458 1.31282 1.29458 1.31282 1.32976 1.35641 1.31565 1.30375 1.35182 1.34089 1.30375 1.29599 1.34089 1.33406 1.35182 1.34089 1.39631 1.37358 1.34089 1.33406 1.37358 1.36651 1.29599 1.29368 1.33406 1.33233 1.29368 1.29441 1.33233 1.33273 1.33406 1.33233 1.36651 1.3635 1.33233 1.33273 1.3635 1.36311 1.29441 1.29324 1.33273 1.33197 1.29324 1.29437 1.33197 1.33152 1.33273 1.33197 1.36311 1.36472 1.33197 1.33152 1.36472 1.379 -1.74166 -1.82139 -1.81888 -1.84457 -1.82139 -1.79421 -1.84457 -1.86169 -1.81888 -1.84457 -1.85478 -1.88198 -1.84457 -1.86169 -1.88198 -1.90788 -1.6913 -1.784 -1.77842 -1.79988 -1.784 -1.77911 -1.79988 -1.82677 -1.77842 -1.79988 -1.74166 -1.81888 -1.79988 -1.82677 -1.81888 -1.85478 -1.74166 -1.81888 -1.82139 -1.84457 -1.81888 -1.85478 -1.84457 -1.88198 -1.82139 -1.84457 -1.79421 -1.86169 -1.84457 -1.88198 -1.86169 -1.90788 -1.66911 -1.77625 -1.75807 -1.78736 -1.77625 -1.79421 -1.78736 -1.83069 -1.75807 -1.78736 -1.69472 -1.79354 -1.78736 -1.83069 -1.79354 -1.84558 1.39631 1.40665 1.37358 1.40002 1.40665 1.47099 1.40002 1.41739 1.37358 1.40002 1.36651 1.39679 1.40002 1.41739 1.39679 1.45333 1.36651 1.39679 1.3635 1.39181 1.39679 1.45333 1.39181 1.40946 1.3635 1.39181 1.36311 1.39325 1.39181 1.40946 1.39325 1.45036 1.36311 1.39325 1.36472 1.3927 1.39325 1.45036 1.3927 1.41057 1.36472 1.3927 1.379 1.39706 1.3927 1.41057 1.39706 1.46023 1.29437 1.33152 1.30064 1.3334 1.33152 1.379 1.3334 1.35159 1.30064 1.3334 1.31334 1.34551 1.3334 1.35159 1.34551 1.40265 1.31334 1.34551 1.32976 1.35458 1.34551 1.40265 1.35458 1.37122 1.32976 1.35458 1.35641 1.36319 1.35458 1.37122 1.36319 1.43015 1.28508 1.31282 1.30637 1.32632 1.31282 1.35641 1.32632 1.34139 1.30637 1.32632 1.34261 1.33844 1.32632 1.34139 1.33844 1.40827 1.28508 1.30637 1.31282 1.32632 1.30637 1.34261 1.32632 1.33844 1.31282 1.32632 1.35641 1.34139 1.32632 1.33844 1.34139 1.40827 1.29437 1.30064 1.33152 1.3334 1.30064 1.31334 1.3334 1.34551 1.33152 1.3334 1.379 1.35159 1.3334 1.34551 1.35159 1.40265 1.31334 1.32976 1.34551 1.35458 1.32976 1.35641 1.35458 1.36319 1.34551 1.35458 1.40265 1.37122 1.35458 1.36319 1.37122 1.43015 1.39631 1.37358 1.40665 1.40002 1.37358 1.36651 1.40002 1.39679 1.40665 1.40002 1.47099 1.41739 1.40002 1.39679 1.41739 1.45333 1.36651 1.3635 1.39679 1.39181 1.3635 1.36311 1.39181 1.39325 1.39679 1.39181 1.45333 1.40946 1.39181 1.39325 1.40946 1.45036 1.36311 1.36472 1.39325 1.3927 1.36472 1.379 1.3927 1.39706 1.39325 1.3927 1.45036 1.41057 1.3927 1.39706 1.41057 1.46023 -1.64345 -1.64399 -1.68359 -1.68083 -1.64399 -1.63451 -1.68083 -1.66356 -1.68359 -1.68083 -1.72129 -1.71553 1.52674 1.53756 1.52256 1.52731 1.47789 1.52256 1.47182 1.50857 1.52256 1.52731 1.50857 1.51511 -1.72129 -1.71553 -1.75212 -1.7435 -1.75212 -1.7435 -1.78773 -1.7664 -1.78773 -1.7664 -1.80583 -1.78488 -1.80583 -1.78488 -1.84765 -1.80648 1.50857 1.51511 1.48641 1.49397 1.45337 1.48641 1.44344 1.46969 1.48641 1.49397 1.46969 1.48071 -1.94287 -1.9355 -1.98523 -1.96116 -1.9355 -1.90662 -1.96116 -1.92379 1.31912 1.38482 1.31321 1.36364 1.31321 1.36364 1.29664 1.32307 1.29664 1.32307 1.28308 1.32392 -2.13089 -2.1423 -2.16835 -2.18637 -2.1423 -2.14125 -2.18637 -2.20624 -2.16835 -2.18637 -2.20473 -2.22913 -2.18637 -2.20624 -2.22913 -2.2539 -2.13758 -2.12695 -2.20967 -2.17931 -2.12695 -2.08908 -2.17931 -2.12509 -2.20967 -2.17931 -2.27012 -2.23437 -2.17931 -2.12509 -2.23437 -2.15438 1.14898 1.19648 1.13419 1.17114 1.21597 1.28308 1.23039 1.2674 1.28308 1.32392 1.2674 1.27996 1.23039 1.2674 1.21911 1.2482 1.2674 1.27996 1.2482 1.28206 1.35243 1.35432 1.34397 1.34863 1.35432 1.38409 1.34863 1.3546 1.34397 1.34863 1.31779 1.34013 1.34863 1.3546 1.34013 1.36056 -2.13143 -2.14933 -2.15939 -2.1798 -2.14933 -2.16732 -2.1798 -2.20042 -2.15939 -2.1798 -2.18667 -2.2098 -2.1798 -2.20042 -2.2098 -2.23507 -2.16732 -2.18503 -2.20042 -2.22194 -2.18503 -2.20473 -2.22194 -2.24503 -2.20042 -2.22194 -2.23507 -2.26648 -2.18667 -2.2098 -2.21222 -2.23776 -2.2098 -2.23507 -2.23776 -2.26707 -2.21222 -2.23776 -2.23542 -2.26227 -2.23776 -2.26707 -2.26227 -2.29418 -2.20473 -2.22913 -2.24503 -2.27542 -2.22913 -2.2539 -2.27542 -2.30559 -2.27542 -2.30559 -2.3301 -2.35959 -2.27012 -2.23437 -2.3401 -2.30661 -2.3401 -2.30661 -2.44113 -2.3957 -2.4162 -2.43968 -2.49632 -2.55249 -2.49632 -2.55249 -2.59592 -2.68809 1.13419 1.17114 1.0987 1.13932 1.0421 1.0987 0.994594 1.05145 1.0987 1.13932 1.05145 1.10211 1.31779 1.34013 1.32535 1.33223 1.34013 1.36056 1.33223 1.33769 1.32535 1.33223 1.29198 1.32703 1.33223 1.33769 1.32703 1.33577 -2.14901 -2.16965 -2.16965 -2.19131 -2.16965 -2.19061 -2.19131 -2.21297 -2.16965 -2.19131 -2.19061 -2.21297 -2.19131 -2.21297 -2.21297 -2.2367 -2.19061 -2.21207 -2.21297 -2.23641 -2.21207 -2.23542 -2.23641 -2.2621 -2.21297 -2.23641 -2.2367 -2.26399 -2.19061 -2.21297 -2.21207 -2.23641 -2.21297 -2.2367 -2.23641 -2.26399 -2.21207 -2.23641 -2.23542 -2.2621 -2.23542 -2.26227 -2.2621 -2.28664 -2.26227 -2.29418 -2.28664 -2.32011 0.428942 0.623414 0.614762 0.707281 0.770807 0.883454 0.727556 0.848285 0.727556 0.848285 0.722626 0.829072 1.13771 1.16453 1.14625 1.15876 1.16453 1.21934 1.15876 1.17254 1.14625 1.15876 1.09771 1.1501 1.15876 1.17254 1.1501 1.20004 1.09771 1.1501 1.1272 1.14217 1.1501 1.20004 1.14217 1.1569 1.1272 1.14217 1.08042 1.13455 1.14217 1.1569 1.13455 1.18624 -2.13143 -2.15939 -2.14933 -2.1798 -2.15939 -2.18667 -2.1798 -2.2098 -2.14933 -2.1798 -2.16732 -2.20042 -2.1798 -2.2098 -2.20042 -2.23507 -2.18667 -2.21222 -2.2098 -2.23776 -2.21222 -2.23542 -2.23776 -2.26227 -2.2098 -2.23776 -2.23507 -2.26707 -2.23776 -2.26227 -2.26707 -2.29418 -2.16732 -2.20042 -2.18503 -2.22194 -2.20042 -2.23507 -2.22194 -2.26648 -2.18503 -2.22194 -2.20473 -2.24503 -2.23542 -2.2621 -2.26227 -2.28664 -2.26227 -2.28664 -2.29418 -2.32011 0.892183 0.935395 0.918857 0.965723 0.935395 0.991994 0.965723 1.00902 0.965723 1.00902 0.991675 1.02686 1.08042 1.13455 1.11338 1.12778 1.13455 1.18624 1.12778 1.14259 1.11338 1.12778 1.07843 1.12057 1.12778 1.14259 1.12057 1.17333 0.991994 1.04349 1.00902 1.04845 1.04349 1.07843 1.04845 1.08343 1.00902 1.04845 1.02686 1.05815 1.04845 1.08343 1.05815 1.08844 1.07843 1.12057 1.08343 1.11432 1.12057 1.17333 1.11432 1.1318 1.08343 1.11432 1.08844 1.11763 1.11432 1.1318 1.11763 1.16876 -2.13089 -2.16835 -2.1423 -2.18637 -2.16835 -2.20473 -2.18637 -2.22913 -2.1423 -2.18637 -2.14125 -2.20624 -2.18637 -2.22913 -2.20624 -2.2539 -2.20473 -2.24503 -2.22913 -2.27542 -2.22913 -2.27542 -2.2539 -2.30559 -2.27542 -2.3301 -2.30559 -2.35959 0.921474 0.944504 0.947069 0.967843 0.923649 0.947069 0.943764 0.964826 0.947069 0.967843 0.964826 0.987122 0.991675 1.02686 1.00936 1.04083 0.971282 1.00936 0.995902 1.02544 1.00936 1.04083 1.02544 1.05353 0.944504 0.968287 0.967843 0.990853 0.968287 0.995902 0.990853 1.01607 0.967843 0.990853 0.987122 1.01062 0.990853 1.01607 1.01062 1.04625 0.995902 1.02544 1.01607 1.04073 1.02544 1.05353 1.04073 1.06823 1.01607 1.04073 1.04625 1.05058 1.04073 1.06823 1.05058 1.10152 -2.13758 -2.20967 -2.12695 -2.17931 -2.20967 -2.27012 -2.17931 -2.23437 -2.12695 -2.17931 -2.08908 -2.12509 -2.17931 -2.23437 -2.12509 -2.15438 -2.4162 -2.49632 -2.43968 -2.55249 -2.49632 -2.59592 -2.55249 -2.68809 -2.27012 -2.3401 -2.23437 -2.30661 -2.3401 -2.44113 -2.30661 -2.3957 0.428942 0.614762 0.623414 0.707281 0.923649 0.943764 0.947069 0.964826 0.921474 0.947069 0.944504 0.967843 0.947069 0.964826 0.967843 0.987122 0.975643 0.997418 0.997418 1.01581 -1.64345 -1.68359 -1.64399 -1.68083 -1.68359 -1.72129 -1.68083 -1.71553 -1.64399 -1.68083 -1.63451 -1.66356 -1.72129 -1.75212 -1.71553 -1.7435 -1.75212 -1.78773 -1.7435 -1.7664 -1.78773 -1.80583 -1.7664 -1.78488 -1.80583 -1.84765 -1.78488 -1.80648 -1.94287 -1.98523 -1.9355 -1.96116 -1.9355 -1.96116 -1.90662 -1.92379 1.14898 1.13419 1.19648 1.17114 1.0421 0.994594 1.0987 1.05145 1.13419 1.0987 1.17114 1.13932 1.0987 1.05145 1.13932 1.10211 0.770807 0.727556 0.883454 0.848285 