# vtk DataFile Version 3.0
#This file was generated by the deal.II library on 2020/5/27 at 9:04:51
ASCII
DATASET UNSTRUCTURED_GRID

POINTS 13456 double
0 0 0
0.0625 0 0
0 0.0625 0
0.0625 0.0625 0
0.9375 0 0
1 0 0
0.9375 0.0625 0
1 0.0625 0
0.875 0.875 0
0.9375 0.875 0
0.875 0.9375 0
0.9375 0.9375 0
0.9375 0.875 0
1 0.875 0
0.9375 0.9375 0
1 0.9375 0
0 0.9375 0
0.0625 0.9375 0
0 1 0
0.0625 1 0
0.875 0.9375 0
0.9375 0.9375 0
0.875 1 0
0.9375 1 0
0.9375 0.9375 0
1 0.9375 0
0.9375 1 0
1 1 0
0.375 0 0
0.40625 0 0
0.375 0.03125 0
0.40625 0.03125 0
0.40625 0 0
0.4375 0 0
0.40625 0.03125 0
0.4375 0.03125 0
0.375 0.03125 0
0.40625 0.03125 0
0.375 0.0625 0
0.40625 0.0625 0
0.40625 0.03125 0
0.4375 0.03125 0
0.40625 0.0625 0
0.4375 0.0625 0
0.4375 0 0
0.46875 0 0
0.4375 0.03125 0
0.46875 0.03125 0
0.46875 0 0
0.5 0 0
0.46875 0.03125 0
0.5 0.03125 0
0.4375 0.03125 0
0.46875 0.03125 0
0.4375 0.0625 0
0.46875 0.0625 0
0.46875 0.03125 0
0.5 0.03125 0
0.46875 0.0625 0
0.5 0.0625 0
0.5 0 0
0.53125 0 0
0.5 0.03125 0
0.53125 0.03125 0
0.53125 0 0
0.5625 0 0
0.53125 0.03125 0
0.5625 0.03125 0
0.5 0.03125 0
0.53125 0.03125 0
0.5 0.0625 0
0.53125 0.0625 0
0.5625 0 0
0.59375 0 0
0.5625 0.03125 0
0.59375 0.03125 0
0.5625 0.03125 0
0.59375 0.03125 0
0.5625 0.0625 0
0.59375 0.0625 0
0.71875 0 0
0.75 0 0
0.71875 0.03125 0
0.75 0.03125 0
0.6875 0.03125 0
0.71875 0.03125 0
0.6875 0.0625 0
0.71875 0.0625 0
0.71875 0.03125 0
0.75 0.03125 0
0.71875 0.0625 0
0.75 0.0625 0
0.75 0 0
0.78125 0 0
0.75 0.03125 0
0.78125 0.03125 0
0.78125 0 0
0.8125 0 0
0.78125 0.03125 0
0.8125 0.03125 0
0.75 0.03125 0
0.78125 0.03125 0
0.75 0.0625 0
0.78125 0.0625 0
0.78125 0.03125 0
0.8125 0.03125 0
0.78125 0.0625 0
0.8125 0.0625 0
0.4375 0.0625 0
0.46875 0.0625 0
0.4375 0.09375 0
0.46875 0.09375 0
0.46875 0.0625 0
0.5 0.0625 0
0.46875 0.09375 0
0.5 0.09375 0
0.6875 0.0625 0
0.71875 0.0625 0
0.6875 0.09375 0
0.71875 0.09375 0
0.71875 0.0625 0
0.75 0.0625 0
0.71875 0.09375 0
0.75 0.09375 0
0.71875 0.09375 0
0.75 0.09375 0
0.71875 0.125 0
0.75 0.125 0
0.75 0.0625 0
0.78125 0.0625 0
0.75 0.09375 0
0.78125 0.09375 0
0.78125 0.0625 0
0.8125 0.0625 0
0.78125 0.09375 0
0.8125 0.09375 0
0.75 0.09375 0
0.78125 0.09375 0
0.75 0.125 0
0.78125 0.125 0
0.78125 0.09375 0
0.8125 0.09375 0
0.78125 0.125 0
0.8125 0.125 0
0.71875 0.125 0
0.75 0.125 0
0.71875 0.15625 0
0.75 0.15625 0
0.71875 0.15625 0
0.75 0.15625 0
0.71875 0.1875 0
0.75 0.1875 0
0.75 0.125 0
0.78125 0.125 0
0.75 0.15625 0
0.78125 0.15625 0
0.78125 0.125 0
0.8125 0.125 0
0.78125 0.15625 0
0.8125 0.15625 0
0.75 0.15625 0
0.78125 0.15625 0
0.75 0.1875 0
0.78125 0.1875 0
0.78125 0.15625 0
0.8125 0.15625 0
0.78125 0.1875 0
0.8125 0.1875 0
0.8125 0.125 0
0.84375 0.125 0
0.8125 0.15625 0
0.84375 0.15625 0
0.84375 0.125 0
0.875 0.125 0
0.84375 0.15625 0
0.875 0.15625 0
0.8125 0.15625 0
0.84375 0.15625 0
0.8125 0.1875 0
0.84375 0.1875 0
0.84375 0.15625 0
0.875 0.15625 0
0.84375 0.1875 0
0.875 0.1875 0
0.71875 0.1875 0
0.75 0.1875 0
0.71875 0.21875 0
0.75 0.21875 0
0.71875 0.21875 0
0.75 0.21875 0
0.71875 0.25 0
0.75 0.25 0
0.75 0.1875 0
0.78125 0.1875 0
0.75 0.21875 0
0.78125 0.21875 0
0.78125 0.1875 0
0.8125 0.1875 0
0.78125 0.21875 0
0.8125 0.21875 0
0.75 0.21875 0
0.78125 0.21875 0
0.75 0.25 0
0.78125 0.25 0
0.78125 0.21875 0
0.8125 0.21875 0
0.78125 0.25 0
0.8125 0.25 0
0 0.375 0
0.03125 0.375 0
0 0.40625 0
0.03125 0.40625 0
0.03125 0.375 0
0.0625 0.375 0
0.03125 0.40625 0
0.0625 0.40625 0
0 0.40625 0
0.03125 0.40625 0
0 0.4375 0
0.03125 0.4375 0
0.03125 0.40625 0
0.0625 0.40625 0
0.03125 0.4375 0
0.0625 0.4375 0
0 0.4375 0
0.03125 0.4375 0
0 0.46875 0
0.03125 0.46875 0
0.03125 0.4375 0
0.0625 0.4375 0
0.03125 0.46875 0
0.0625 0.46875 0
0 0.46875 0
0.03125 0.46875 0
0 0.5 0
0.03125 0.5 0
0.03125 0.46875 0
0.0625 0.46875 0
0.03125 0.5 0
0.0625 0.5 0
0.0625 0.4375 0
0.09375 0.4375 0
0.0625 0.46875 0
0.09375 0.46875 0
0.0625 0.46875 0
0.09375 0.46875 0
0.0625 0.5 0
0.09375 0.5 0
0 0.5 0
0.03125 0.5 0
0 0.53125 0
0.03125 0.53125 0
0.03125 0.5 0
0.0625 0.5 0
0.03125 0.53125 0
0.0625 0.53125 0
0 0.53125 0
0.03125 0.53125 0
0 0.5625 0
0.03125 0.5625 0
0 0.5625 0
0.03125 0.5625 0
0 0.59375 0
0.03125 0.59375 0
0.03125 0.5625 0
0.0625 0.5625 0
0.03125 0.59375 0
0.0625 0.59375 0
0.03125 0.6875 0
0.0625 0.6875 0
0.03125 0.71875 0
0.0625 0.71875 0
0 0.71875 0
0.03125 0.71875 0
0 0.75 0
0.03125 0.75 0
0.03125 0.71875 0
0.0625 0.71875 0
0.03125 0.75 0
0.0625 0.75 0
0.0625 0.6875 0
0.09375 0.6875 0
0.0625 0.71875 0
0.09375 0.71875 0
0.0625 0.71875 0
0.09375 0.71875 0
0.0625 0.75 0
0.09375 0.75 0
0.09375 0.71875 0
0.125 0.71875 0
0.09375 0.75 0
0.125 0.75 0
0.125 0.71875 0
0.15625 0.71875 0
0.125 0.75 0
0.15625 0.75 0
0.15625 0.71875 0
0.1875 0.71875 0
0.15625 0.75 0
0.1875 0.75 0
0.1875 0.71875 0
0.21875 0.71875 0
0.1875 0.75 0
0.21875 0.75 0
0.21875 0.71875 0
0.25 0.71875 0
0.21875 0.75 0
0.25 0.75 0
0 0.75 0
0.03125 0.75 0
0 0.78125 0
0.03125 0.78125 0
0.03125 0.75 0
0.0625 0.75 0
0.03125 0.78125 0
0.0625 0.78125 0
0 0.78125 0
0.03125 0.78125 0
0 0.8125 0
0.03125 0.8125 0
0.03125 0.78125 0
0.0625 0.78125 0
0.03125 0.8125 0
0.0625 0.8125 0
0.0625 0.75 0
0.09375 0.75 0
0.0625 0.78125 0
0.09375 0.78125 0
0.09375 0.75 0
0.125 0.75 0
0.09375 0.78125 0
0.125 0.78125 0
0.0625 0.78125 0
0.09375 0.78125 0
0.0625 0.8125 0
0.09375 0.8125 0
0.09375 0.78125 0
0.125 0.78125 0
0.09375 0.8125 0
0.125 0.8125 0
0.125 0.75 0
0.15625 0.75 0
0.125 0.78125 0
0.15625 0.78125 0
0.15625 0.75 0
0.1875 0.75 0
0.15625 0.78125 0
0.1875 0.78125 0
0.125 0.78125 0
0.15625 0.78125 0
0.125 0.8125 0
0.15625 0.8125 0
0.15625 0.78125 0
0.1875 0.78125 0
0.15625 0.8125 0
0.1875 0.8125 0
0.1875 0.75 0
0.21875 0.75 0
0.1875 0.78125 0
0.21875 0.78125 0
0.21875 0.75 0
0.25 0.75 0
0.21875 0.78125 0
0.25 0.78125 0
0.1875 0.78125 0
0.21875 0.78125 0
0.1875 0.8125 0
0.21875 0.8125 0
0.21875 0.78125 0
0.25 0.78125 0
0.21875 0.8125 0
0.25 0.8125 0
0.125 0.8125 0
0.15625 0.8125 0
0.125 0.84375 0
0.15625 0.84375 0
0.15625 0.8125 0
0.1875 0.8125 0
0.15625 0.84375 0
0.1875 0.84375 0
0.125 0.84375 0
0.15625 0.84375 0
0.125 0.875 0
0.15625 0.875 0
0.15625 0.84375 0
0.1875 0.84375 0
0.15625 0.875 0
0.1875 0.875 0
0.25 0 0
0.28125 0 0
0.25 0.03125 0
0.28125 0.03125 0
0.28125 0 0
0.3125 0 0
0.28125 0.03125 0
0.3125 0.03125 0
0.25 0.03125 0
0.28125 0.03125 0
0.25 0.0625 0
0.28125 0.0625 0
0.28125 0.03125 0
0.3125 0.03125 0
0.28125 0.0625 0
0.3125 0.0625 0
0.3125 0 0
0.34375 0 0
0.3125 0.03125 0
0.34375 0.03125 0
0.34375 0 0
0.375 0 0
0.34375 0.03125 0
0.375 0.03125 0
0.3125 0.03125 0
0.34375 0.03125 0
0.3125 0.0625 0
0.34375 0.0625 0
0.34375 0.03125 0
0.375 0.03125 0
0.34375 0.0625 0
0.375 0.0625 0
0.1875 0.0625 0
0.21875 0.0625 0
0.1875 0.09375 0
0.21875 0.09375 0
0.21875 0.0625 0
0.25 0.0625 0
0.21875 0.09375 0
0.25 0.09375 0
0.1875 0.09375 0
0.21875 0.09375 0
0.1875 0.125 0
0.21875 0.125 0
0.21875 0.09375 0
0.25 0.09375 0
0.21875 0.125 0
0.25 0.125 0
0.25 0.0625 0
0.28125 0.0625 0
0.25 0.09375 0
0.28125 0.09375 0
0.28125 0.0625 0
0.3125 0.0625 0
0.28125 0.09375 0
0.3125 0.09375 0
0.25 0.09375 0
0.28125 0.09375 0
0.25 0.125 0
0.28125 0.125 0
0.28125 0.09375 0
0.3125 0.09375 0
0.28125 0.125 0
0.3125 0.125 0
0.8125 0.0625 0
0.84375 0.0625 0
0.8125 0.09375 0
0.84375 0.09375 0
0.84375 0.0625 0
0.875 0.0625 0
0.84375 0.09375 0
0.875 0.09375 0
0.8125 0.09375 0
0.84375 0.09375 0
0.8125 0.125 0
0.84375 0.125 0
0.84375 0.09375 0
0.875 0.09375 0
0.84375 0.125 0
0.875 0.125 0
0.1875 0.125 0
0.21875 0.125 0
0.1875 0.15625 0
0.21875 0.15625 0
0.21875 0.125 0
0.25 0.125 0
0.21875 0.15625 0
0.25 0.15625 0
0.21875 0.15625 0
0.25 0.15625 0
0.21875 0.1875 0
0.25 0.1875 0
0.25 0.125 0
0.28125 0.125 0
0.25 0.15625 0
0.28125 0.15625 0
0.0625 0.1875 0
0.09375 0.1875 0
0.0625 0.21875 0
0.09375 0.21875 0
0.09375 0.1875 0
0.125 0.1875 0
0.09375 0.21875 0
0.125 0.21875 0
0.0625 0.21875 0
0.09375 0.21875 0
0.0625 0.25 0
0.09375 0.25 0
0.09375 0.21875 0
0.125 0.21875 0
0.09375 0.25 0
0.125 0.25 0
0.125 0.1875 0
0.15625 0.1875 0
0.125 0.21875 0
0.15625 0.21875 0
0.125 0.21875 0
0.15625 0.21875 0
0.125 0.25 0
0.15625 0.25 0
0.15625 0.21875 0
0.1875 0.21875 0
0.15625 0.25 0
0.1875 0.25 0
0.1875 0.1875 0
0.21875 0.1875 0
0.1875 0.21875 0
0.21875 0.21875 0
0.8125 0.1875 0
0.84375 0.1875 0
0.8125 0.21875 0
0.84375 0.21875 0
0.84375 0.1875 0
0.875 0.1875 0
0.84375 0.21875 0
0.875 0.21875 0
0.8125 0.21875 0
0.84375 0.21875 0
0.8125 0.25 0
0.84375 0.25 0
0.84375 0.21875 0
0.875 0.21875 0
0.84375 0.25 0
0.875 0.25 0
0 0.25 0
0.03125 0.25 0
0 0.28125 0
0.03125 0.28125 0
0.03125 0.25 0
0.0625 0.25 0
0.03125 0.28125 0
0.0625 0.28125 0
0 0.28125 0
0.03125 0.28125 0
0 0.3125 0
0.03125 0.3125 0
0.03125 0.28125 0
0.0625 0.28125 0
0.03125 0.3125 0
0.0625 0.3125 0
0.0625 0.25 0
0.09375 0.25 0
0.0625 0.28125 0
0.09375 0.28125 0
0.09375 0.25 0
0.125 0.25 0
0.09375 0.28125 0
0.125 0.28125 0
0.0625 0.28125 0
0.09375 0.28125 0
0.0625 0.3125 0
0.09375 0.3125 0
0.09375 0.28125 0
0.125 0.28125 0
0.09375 0.3125 0
0.125 0.3125 0
0.125 0.25 0
0.15625 0.25 0
0.125 0.28125 0
0.15625 0.28125 0
0.75 0.25 0
0.78125 0.25 0
0.75 0.28125 0
0.78125 0.28125 0
0.78125 0.25 0
0.8125 0.25 0
0.78125 0.28125 0
0.8125 0.28125 0
0.75 0.28125 0
0.78125 0.28125 0
0.75 0.3125 0
0.78125 0.3125 0
0.78125 0.28125 0
0.8125 0.28125 0
0.78125 0.3125 0
0.8125 0.3125 0
0.8125 0.25 0
0.84375 0.25 0
0.8125 0.28125 0
0.84375 0.28125 0
0.84375 0.25 0
0.875 0.25 0
0.84375 0.28125 0
0.875 0.28125 0
0.8125 0.28125 0
0.84375 0.28125 0
0.8125 0.3125 0
0.84375 0.3125 0
0.84375 0.28125 0
0.875 0.28125 0
0.84375 0.3125 0
0.875 0.3125 0
0 0.3125 0
0.03125 0.3125 0
0 0.34375 0
0.03125 0.34375 0
0.03125 0.3125 0
0.0625 0.3125 0
0.03125 0.34375 0
0.0625 0.34375 0
0 0.34375 0
0.03125 0.34375 0
0 0.375 0
0.03125 0.375 0
0.03125 0.34375 0
0.0625 0.34375 0
0.03125 0.375 0
0.0625 0.375 0
0.75 0.3125 0
0.78125 0.3125 0
0.75 0.34375 0
0.78125 0.34375 0
0.78125 0.3125 0
0.8125 0.3125 0
0.78125 0.34375 0
0.8125 0.34375 0
0.78125 0.34375 0
0.8125 0.34375 0
0.78125 0.375 0
0.8125 0.375 0
[...]
POINT_DATA 13456
SCALARS solution double 1
LOOKUP_TABLE default
-1.56921 -1.56906 -1.56906 -1.42657 1.56733 1.56795 1.62859 1.56799 1.93927 1.74274 1.74274 1.64173 1.74274 1.56937 1.64173 1.56945 1.56733 1.62859 1.56795 1.56799 1.74274 1.64173 1.56937 1.56945 1.64173 1.56945 1.56945 1.56952 -1.56712 -1.56665 -1.22926 -1.24235 -1.56665 -1.56603 -1.24235 -1.27011 -1.22926 -1.24235 -0.739608 -0.765899 -1.24235 -1.27011 -0.765899 -0.880675 -1.56603 -1.5652 -1.27011 -1.31999 -1.5652 -1.56403 -1.31999 -1.41026 -1.27011 -1.31999 -0.880675 -1.02546 -1.31999 -1.41026 -1.02546 -1.18569 -1.56403 -1.56222 -1.41026 -1.57985 -1.56222 -1.5591 -1.57985 -1.94051 -1.41026 -1.57985 -1.18569 -1.48926 -1.5591 -1.55239 -1.94051 -2.7016 -1.94051 -2.7016 -2.13162 -3.28864 1.55659 1.56095 1.11954 1.40194 0.347391 1.11954 -0.159541 0.932806 1.11954 1.40194 0.932806 1.35952 1.56095 1.56326 1.40194 1.52831 1.56326 1.5647 1.52831 1.58677 1.40194 1.52831 1.35952 1.55439 1.52831 1.58677 1.55439 1.64074 -0.880675 -1.02546 -0.357501 -0.574742 -1.02546 -1.18569 -0.574742 -0.7815 -0.159541 0.932806 0.149633 1.11918 0.932806 1.35952 1.11918 1.51331 1.11918 1.51331 1.64791 1.82342 1.35952 1.55439 1.51331 1.67716 1.55439 1.64074 1.67716 1.74528 1.51331 1.67716 1.82342 1.88549 1.67716 1.74528 1.88549 1.89864 1.64791 1.82342 2.30197 2.19272 2.30197 2.19272 2.85492 2.54669 1.82342 1.88549 2.19272 2.13939 1.88549 1.89864 2.13939 2.08405 2.19272 2.13939 2.54669 2.40022 2.13939 2.08405 2.40022 2.28146 1.89864 1.87877 2.08405 2.01768 1.87877 1.83682 2.01768 1.94042 2.08405 2.01768 2.28146 2.16759 2.01768 1.94042 2.16759 2.05248 2.85492 2.54669 3.22178 2.84907 3.22178 2.84907 3.55282 3.15538 2.54669 2.40022 2.84907 2.64514 2.40022 2.28146 2.64514 2.47595 2.84907 2.64514 3.15538 2.87071 2.64514 2.47595 2.87071 2.66051 -1.56712 -1.22926 -1.56665 -1.24235 -1.22926 -0.739608 -1.24235 -0.765899 -1.56665 -1.24235 -1.56603 -1.27011 -1.24235 -0.765899 -1.27011 -0.880675 -1.56603 -1.27011 -1.5652 -1.31999 -1.27011 -0.880675 -1.31999 -1.02546 -1.5652 -1.31999 -1.56403 -1.41026 -1.31999 -1.02546 -1.41026 -1.18569 -0.880675 -0.357501 -1.02546 -0.574742 -1.02546 -0.574742 -1.18569 -0.7815 -1.56403 -1.41026 -1.56222 -1.57985 -1.41026 -1.18569 -1.57985 -1.48926 -1.56222 -1.57985 -1.5591 -1.94051 -1.5591 -1.94051 -1.55239 -2.7016 -1.94051 -2.13162 -2.7016 -3.28864 0.347391 -0.159541 1.11954 0.932806 1.55659 1.11954 1.56095 1.40194 1.11954 0.932806 1.40194 1.35952 -0.159541 0.149633 0.932806 1.11918 0.932806 1.11918 1.35952 1.51331 1.11918 1.64791 1.51331 1.82342 1.64791 2.30197 1.82342 2.19272 2.30197 2.85492 2.19272 2.54669 2.85492 3.22178 2.54669 2.84907 3.22178 3.55282 2.84907 3.15538 1.56095 1.40194 1.56326 1.52831 1.40194 1.35952 1.52831 1.55439 1.56326 1.52831 1.5647 1.58677 1.52831 1.55439 1.58677 1.64074 1.35952 1.51331 1.55439 1.67716 1.51331 1.82342 1.67716 1.88549 1.55439 1.67716 1.64074 1.74528 1.67716 1.88549 1.74528 1.89864 1.82342 2.19272 1.88549 2.13939 2.19272 2.54669 2.13939 2.40022 1.88549 2.13939 1.89864 2.08405 2.13939 2.40022 2.08405 2.28146 2.54669 2.84907 2.40022 2.64514 2.84907 3.15538 2.64514 2.87071 2.40022 2.64514 2.28146 2.47595 2.64514 2.87071 2.47595 2.66051 1.89864 2.08405 1.87877 2.01768 2.08405 2.28146 2.01768 2.16759 1.87877 2.01768 1.83682 1.94042 2.01768 2.16759 1.94042 2.05248 -1.56827 -1.56806 -1.27334 -1.24544 -1.56806 -1.5678 -1.24544 -1.23154 -1.27334 -1.24544 -0.972102 -0.904807 -1.24544 -1.23154 -0.904807 -0.818219 -1.5678 -1.5675 -1.23154 -1.22773 -1.5675 -1.56712 -1.22773 -1.22926 -1.23154 -1.22773 -0.818219 -0.748086 -1.22773 -1.22926 -0.748086 -0.739608 -1.11961 -1.04418 -0.895627 -0.776667 -1.04418 -0.972102 -0.776667 -0.661117 -0.895627 -0.776667 -0.674438 -0.499764 -0.776667 -0.661117 -0.499764 -0.327909 -0.972102 -0.904807 -0.661117 -0.549196 -0.904807 -0.818219 -0.549196 -0.361334 -0.661117 -0.549196 -0.327909 -0.128017 -0.549196 -0.361334 -0.128017 0.109323 1.64074 1.67211 1.74528 1.76122 1.67211 1.67398 1.76122 1.74704 1.74528 1.76122 1.89864 1.87877 1.76122 1.74704 1.87877 1.83682 -0.674438 -0.499764 -0.436911 -0.168399 -0.499764 -0.327909 -0.168399 0.105308 -0.168399 0.105308 0.308538 0.664845 -0.327909 -0.128017 0.105308 0.429265 -1.11961 -0.895627 -1.04418 -0.776667 -0.895627 -0.674438 -0.776667 -0.499764 -1.04418 -0.776667 -0.972102 -0.661117 -0.776667 -0.499764 -0.661117 -0.327909 -0.674438 -0.436911 -0.499764 -0.168399 -0.499764 -0.168399 -0.327909 0.105308 -0.168399 0.308538 0.105308 0.664845 -0.080198 0.308538 0.308538 0.782801 2.28146 2.16759 2.47595 2.31928 2.16759 2.05248 2.31928 2.16742 2.47595 2.31928 2.66051 2.46672 2.31928 2.16742 2.46672 2.2808 -1.56827 -1.27334 -1.56806 -1.24544 -1.27334 -0.972102 -1.24544 -0.904807 -1.56806 -1.24544 -1.5678 -1.23154 -1.24544 -0.904807 -1.23154 -0.818219 -0.972102 -0.661117 -0.904807 -0.549196 -0.661117 -0.327909 -0.549196 -0.128017 -0.904807 -0.549196 -0.818219 -0.361334 -0.549196 -0.128017 -0.361334 0.109323 -0.327909 0.105308 -0.128017 0.429265 3.15538 2.87071 3.45423 3.08064 2.87071 2.66051 3.08064 2.8338 3.45423 3.08064 3.68307 3.2791 3.08064 2.8338 3.2791 2.9966 2.66051 2.46672 2.8338 2.60686 2.46672 2.2808 2.60686 2.38962 2.8338 2.60686 2.9966 2.73802 2.60686 2.38962 2.73802 2.49183 -1.5678 -1.23154 -1.5675 -1.22773 -1.23154 -0.818219 -1.22773 -0.748086 -1.5675 -1.22773 -1.56712 -1.22926 -1.22773 -0.748086 -1.22926 -0.739608 3.68307 3.2791 3.99961 3.52357 3.2791 2.9966 3.52357 3.14912 3.52357 3.14912 3.77178 3.28983 2.9966 2.73802 3.14912 2.85878 2.73802 2.49183 2.85878 2.5859 3.14912 2.85878 3.28983 2.96808 2.85878 2.5859 2.96808 2.67054 2.49183 2.25398 2.5859 2.3229 2.25398 2.02213 2.3229 2.06717 2.5859 2.3229 2.67054 2.38454 2.3229 2.06717 2.38454 2.1071 1.5647 1.56567 1.58677 1.61046 1.56567 1.56638 1.61046 1.61594 1.58677 1.61046 1.64074 1.67211 1.61046 1.61594 1.67211 1.67398 3.77178 3.28983 3.93316 3.412 3.93316 3.412 4.06578 3.51198 3.28983 2.96808 3.412 3.06405 2.96808 2.67054 3.06405 2.74452 3.412 3.06405 3.51198 3.14442 3.06405 2.74452 3.14442 2.80718 2.67054 2.38454 2.74452 2.43767 2.38454 2.1071 2.43767 2.14052 2.74452 2.43767 2.80718 2.48135 2.43767 2.14052 2.48135 2.16505 1.67398 1.65941 1.74704 1.71509 1.65941 1.62859 1.71509 1.67285 1.74704 1.71509 1.83682 1.7805 1.71509 1.67285 1.7805 1.71499 4.06578 3.51198 4.16236 3.58729 4.16236 3.58729 4.2168 3.63524 3.51198 3.14442 3.58729 3.20783 3.14442 2.80718 3.20783 2.86019 3.58729 3.20783 3.63524 3.25167 3.20783 2.86019 3.25167 2.90596 2.80718 2.48135 2.86019 2.51655 2.48135 2.16505 2.51655 2.17505 2.86019 2.51655 2.90596 2.55337 2.51655 2.17505 2.55337 2.15204 2.16505 1.86179 2.17505 1.86065 1.86179 1.56861 1.86065 1.56867 2.17505 1.86065 2.15204 1.8405 1.86065 1.56867 1.8405 1.56874 4.2168 3.63524 4.22436 3.65541 4.22436 3.65541 4.13094 3.65245 3.63524 3.25167 3.65541 3.26944 3.25167 2.90596 3.26944 2.91499 3.65541 3.26944 3.65245 3.26181 3.26944 2.91499 3.26181 2.83686 2.90596 2.55337 2.91499 2.56366 2.91499 2.56366 2.83686 2.48306 5.12327 4.5023 4.85555 4.31323 4.7614 4.13094 4.5023 4.00438 4.13094 3.65245 4.00438 3.59769 4.5023 4.00438 4.31323 3.89403 4.00438 3.59769 3.89403 3.43191 4.85555 4.31323 4.56992 4.11134 5.10315 4.56992 4.64705 4.23852 4.56992 4.11134 4.23852 3.74337 5.12327 4.85555 4.5023 4.31323 5.10315 4.64705 4.56992 4.23852 4.85555 4.56992 4.31323 4.11134 4.56992 4.23852 4.11134 3.74337 3.15538 3.45423 2.87071 3.08064 3.45423 3.68307 3.08064 3.2791 2.87071 3.08064 2.66051 2.8338 3.08064 3.2791 2.8338 2.9966 3.68307 3.99961 3.2791 3.52357 3.2791 3.52357 2.9966 3.14912 3.52357 3.77178 3.14912 3.28983 3.77178 3.93316 3.28983 3.412 3.93316 4.06578 3.412 3.51198 4.06578 4.16236 3.51198 3.58729 4.16236 4.2168 3.58729 3.63524 4.2168 4.22436 3.63524 3.65541 4.22436 4.13094 3.65541 3.65245 4.7614 4.5023 4.13094 4.00438 4.5023 4.31323 4.00438 3.89403 4.13094 4.00438 3.65245 3.59769 4.00438 3.89403 3.59769 3.43191 1.64074 1.74528 1.67211 1.76122 1.74528 1.89864 1.76122 1.87877 1.67211 1.76122 1.67398 1.74704 1.76122 1.87877 1.74704 1.83682 2.28146 2.47595 2.16759 2.31928 2.47595 2.66051 2.31928 2.46672 2.16759 2.31928 2.05248 2.16742 2.31928 2.46672 2.16742 2.2808 2.66051 2.8338 2.46672 2.60686 2.8338 2.9966 2.60686 2.73802 2.46672 2.60686 2.2808 2.38962 2.60686 2.73802 2.38962 2.49183 2.9966 3.14912 2.73802 2.85878 3.14912 3.28983 2.85878 2.96808 2.73802 2.85878 2.49183 2.5859 2.85878 2.96808 2.5859 2.67054 3.28983 3.412 2.96808 3.06405 3.412 3.51198 3.06405 3.14442 2.96808 3.06405 2.67054 2.74452 3.06405 3.14442 2.74452 2.80718 3.51198 3.58729 3.14442 3.20783 3.58729 3.63524 3.20783 3.25167 3.14442 3.20783 2.80718 2.86019 3.20783 3.25167 2.86019 2.90596 3.63524 3.65541 3.25167 3.26944 3.65541 3.65245 3.26944 3.26181 3.25167 3.26944 2.90596 2.91499 3.26944 3.26181 2.91499 2.83686 2.49183 2.5859 2.25398 2.3229 2.5859 2.67054 2.3229 2.38454 2.25398 2.3229 2.02213 2.06717 2.3229 2.38454 2.06717 2.1071 2.67054 2.74452 2.38454 2.43767 2.74452 2.80718 2.43767 2.48135 2.38454 2.43767 2.1071 2.14052 2.43767 2.48135 2.14052 2.16505 2.80718 2.86019 2.48135 2.51655 2.86019 2.90596 2.51655 2.55337 2.48135 2.51655 2.16505 2.17505 2.51655 2.55337 2.17505 2.15204 2.90596 2.91499 2.55337 2.56366 2.91499 2.83686 2.56366 2.48306 1.83682 1.7805 1.94042 1.85456 1.7805 1.71499 1.85456 1.76255 1.94042 1.85456 2.05248 1.93461 1.85456 1.76255 1.93461 1.81412 2.05248 1.93461 2.16742 2.01729 1.93461 1.81412 2.01729 1.86763 2.16742 2.01729 2.2808 2.09957 2.01729 1.86763 2.09957 1.92116 2.16505 2.17505 1.86179 1.86065 2.17505 2.15204 1.86065 1.8405 1.86179 1.86065 1.56861 1.56867 1.86065 1.8405 1.56867 1.56874 3.65245 3.26181 3.59769 3.2097 3.59769 3.2097 3.43191 3.04992 4.31323 3.89403 4.11134 3.69068 4.64705 4.23852 4.23852 3.87899 4.31323 4.11134 3.89403 3.69068 1.5647 1.58677 1.56567 1.61046 1.58677 1.64074 1.61046 1.67211 1.56567 1.61046 1.56638 1.61594 1.61046 1.67211 1.61594 1.67398 3.65245 3.59769 3.26181 3.2097 3.59769 3.43191 3.2097 3.04992 1.67398 1.74704 1.65941 1.71509 1.74704 1.83682 1.71509 1.7805 1.65941 1.71509 1.62859 1.67285 1.71509 1.7805 1.67285 1.71499 1.83682 1.94042 1.7805 1.85456 1.94042 2.05248 1.85456 1.93461 1.7805 1.85456 1.71499 1.76255 1.85456 1.93461 1.76255 1.81412 2.05248 2.16742 1.93461 2.01729 2.16742 2.2808 2.01729 2.09957 1.93461 2.01729 1.81412 1.86763 2.01729 2.09957 1.86763 1.92116 -1.56906 -1.56897 -1.46539 -1.44831 -1.56897 -1.56887 -1.44831 -1.4166 -1.46539 -1.44831 -1.42657 -1.33865 -1.44831 -1.4166 -1.33865 -1.26748 -1.56887 -1.56875 -1.4166 -1.38107 -1.56875 -1.56861 -1.38107 -1.34419 -1.4166 -1.38107 -1.26748 -1.19463 -1.38107 -1.34419 -1.19463 -1.11961 -1.56861 -1.56845 -1.34419 -1.30753 -1.56845 -1.56827 -1.30753 -1.27334 -1.34419 -1.30753 -1.11961 -1.04418 -1.30753 -1.27334 -1.04418 -0.972102 1.56638 1.56691 1.61594 1.61243 1.56691 1.56733 1.61243 1.6083 1.61594 1.61243 1.67398 1.65941 1.61243 1.6083 1.65941 1.62859 -1.56906 -1.46539 -1.56897 -1.44831 -1.46539 -1.42657 -1.44831 -1.33865 -1.56897 -1.44831 -1.56887 -1.4166 -1.44831 -1.33865 -1.4166 -1.26748 -1.42657 -1.33865 -1.33865 -1.22983 -1.33865 -1.26748 -1.22983 -1.12097 -1.33865 -1.22983 -1.26748 -1.12097 -1.22983 -1.12097 -1.12097 -0.975984 -1.26748 -1.19463 -1.12097 -1.01046 -1.19463 -1.11961 -1.01046 -0.895627 -1.12097 -1.01046 -0.975984 -0.829848 -1.01046 -0.895627 -0.829848 -0.674438 1.62859 1.61496 1.67285 1.62441 1.61496 1.56799 1.62441 1.56802 1.67285 1.62441 1.71499 1.64341 1.62441 1.56802 1.64341 1.56805 -1.56887 -1.4166 -1.56875 -1.38107 -1.4166 -1.26748 -1.38107 -1.19463 -1.56875 -1.38107 -1.56861 -1.34419 -1.38107 -1.19463 -1.34419 -1.11961 -1.26748 -1.12097 -1.19463 -1.01046 -1.12097 -0.975984 -1.01046 -0.829848 -1.19463 -1.01046 -1.11961 -0.895627 -1.01046 -0.829848 -0.895627 -0.674438 -0.975984 -0.829848 -0.829848 -0.650346 -0.829848 -0.674438 -0.650346 -0.436911 -0.829848 -0.650346 -0.674438 -0.436911 -0.650346 -0.436911 -0.436911 -0.080198 1.71499 1.64341 1.76255 1.66643 1.64341 1.56805 1.66643 1.56809 1.76255 1.66643 1.81412 1.69167 1.66643 1.56809 1.69167 1.56814 -1.56861 -1.34419 -1.56845 -1.30753 -1.34419 -1.11961 -1.30753 -1.04418 -1.56845 -1.30753 -1.56827 -1.27334 -1.30753 -1.04418 -1.27334 -0.972102 1.81412 1.69167 1.86763 1.71796 1.69167 1.56814 1.71796 1.56819 1.86763 1.71796 1.92116 1.74434 1.71796 1.56819 1.74434 1.56825 2.2808 2.09957 2.38962 2.17906 2.09957 1.92116 2.17906 1.97309 2.38962 2.17906 2.49183 2.25398 2.17906 1.97309 2.25398 2.02213 1.92116 1.74434 1.97309 1.77 1.74434 1.56825 1.77 1.5683 1.97309 1.77 2.02213 1.79426 1.77 1.5683 1.79426 1.56836 2.02213 1.79426 2.06717 1.81649 1.79426 1.56836 1.81649 1.56842 2.06717 1.81649 2.1071 1.83602 1.81649 1.56842 1.83602 1.56849 2.1071 1.83602 2.14052 1.85184 1.83602 1.56849 1.85184 1.56855 2.14052 1.85184 2.16505 1.86179 1.85184 1.56855 1.86179 1.56861 2.15204 1.8405 2.11713 1.82002 1.8405 1.56874 1.82002 1.5688 2.11713 1.82002 2.11245 1.8226 1.82002 1.5688 1.8226 1.56886 2.83686 2.48306 2.72648 2.39503 2.48306 2.11245 2.39503 2.10384 2.72648 2.39503 2.65594 2.34996 2.39503 2.10384 2.34996 2.083 2.11245 1.8226 2.10384 1.82876 1.8226 1.56886 1.82876 1.56892 2.10384 1.82876 2.083 1.82317 1.82876 1.56892 1.82317 1.56897 3.43191 3.04992 3.22682 2.87791 3.04992 2.65594 2.87791 2.58353 3.22682 2.87791 3.03755 2.75087 2.87791 2.58353 2.75087 2.5021 2.65594 2.34996 2.58353 2.31136 2.34996 2.083 2.31136 2.05731 2.58353 2.31136 2.5021 2.25988 2.31136 2.05731 2.25988 2.02517 2.083 1.82317 2.05731 1.81134 1.82317 1.56897 1.81134 1.56903 2.05731 1.81134 2.02517 1.79582 1.81134 1.56903 1.79582 1.56908 3.74337 3.34256 3.41749 3.09438 3.34256 3.03755 3.09438 2.86042 3.41749 3.09438 3.15875 2.91557 3.09438 2.86042 2.91557 2.71695 3.03755 2.75087 2.86042 2.63639 2.75087 2.5021 2.63639 2.41696 2.86042 2.63639 2.71695 2.52262 2.63639 2.41696 2.52262 2.32972 2.5021 2.25988 2.41696 2.20072 2.25988 2.02517 2.20072 1.98782 2.41696 2.20072 2.32972 2.13804 2.20072 1.98782 2.13804 1.94755 2.02517 1.79582 1.98782 1.77772 1.79582 1.56908 1.77772 1.56913 1.98782 1.77772 1.94755 1.75807 1.77772 1.56913 1.75807 1.56918 3.74337 3.41749 3.34256 3.09438 3.41749 3.15875 3.09438 2.91557 3.34256 3.09438 3.03755 2.86042 3.09438 2.91557 2.86042 2.71695 3.15875 2.91557 2.91557 2.74446 2.91557 2.71695 2.74446 2.57592 2.91557 2.74446 2.71695 2.57592 2.74446 2.57592 2.57592 2.43497 2.71695 2.52262 2.57592 2.40849 2.52262 2.32972 2.40849 2.24141 2.57592 2.40849 2.43497 2.29407 2.40849 2.24141 2.29407 2.1532 2.32972 2.13804 2.24141 2.07413 2.13804 1.94755 2.07413 1.9062 2.24141 2.07413 2.1532 2.01097 2.07413 1.9062 2.01097 1.86514 1.94755 1.75807 1.9062 1.73781 1.75807 1.56918 1.73781 1.56923 1.9062 1.73781 1.86514 1.71769 1.73781 1.56923 1.71769 1.56928 3.43191 3.22682 3.04992 2.87791 3.22682 3.03755 2.87791 2.75087 3.04992 2.87791 2.65594 2.58353 2.87791 2.75087 2.58353 2.5021 3.03755 2.86042 2.75087 2.63639 2.86042 2.71695 2.63639 2.52262 2.75087 2.63639 2.5021 2.41696 2.63639 2.52262 2.41696 2.32972 2.71695 2.57592 2.52262 2.40849 2.57592 2.43497 2.40849 2.29407 2.52262 2.40849 2.32972 2.24141 2.40849 2.29407 2.24141 2.1532 2.43497 2.29407 2.29407 2.17904 2.29407 2.1532 2.17904 2.06422 2.29407 2.17904 2.1532 2.06422 2.17904 2.06422 2.06422 1.93927 2.1532 2.01097 2.06422 1.95191 2.01097 1.86514 1.95191 1.82339 2.06422 1.95191 1.93927 1.91702 1.95191 1.82339 1.91702 1.74274 1.86514 1.71769 1.82339 1.69837 1.71769 1.56928 1.69837 1.56932 1.82339 1.69837 1.74274 1.68603 1.69837 1.56932 1.68603 1.56937 1.56638 1.61594 1.56691 1.61243 1.61594 1.67398 1.61243 1.65941 1.56691 1.61243 1.56733 1.6083 1.61243 1.65941 1.6083 1.62859 2.2808 2.38962 2.09957 2.17906 2.38962 2.49183 2.17906 2.25398 2.09957 2.17906 1.92116 1.97309 2.17906 2.25398 1.97309 2.02213 2.83686 2.72648 2.48306 2.39503 2.72648 2.65594 2.39503 2.34996 2.48306 2.39503 2.11245 2.10384 2.39503 2.34996 2.10384 2.083 2.65594 2.58353 2.34996 2.31136 2.58353 2.5021 2.31136 2.25988 2.34996 2.31136 2.083 2.05731 2.31136 2.25988 2.05731 2.02517 2.5021 2.41696 2.25988 2.20072 2.41696 2.32972 2.20072 2.13804 2.25988 2.20072 2.02517 1.98782 2.20072 2.13804 1.98782 1.94755 2.32972 2.24141 2.13804 2.07413 2.24141 2.1532 2.07413 2.01097 2.13804 2.07413 1.94755 1.9062 2.07413 2.01097 1.9062 1.86514 2.1532 2.06422 2.01097 1.95191 2.06422 1.93927 1.95191 1.91702 2.01097 1.95191 1.86514 1.82339 1.95191 1.91702 1.82339 1.74274 1.62859 1.67285 1.61496 1.62441 1.67285 1.71499 1.62441 1.64341 1.61496 1.62441 1.56799 1.56802 1.62441 1.64341 1.56802 1.56805 1.71499 1.76255 1.64341 1.66643 1.76255 1.81412 1.66643 1.69167 1.64341 1.66643 1.56805 1.56809 1.66643 1.69167 1.56809 1.56814 1.81412 1.86763 1.69167 1.71796 1.86763 1.92116 1.71796 1.74434 1.69167 1.71796 1.56814 1.56819 1.71796 1.74434 1.56819 1.56825 1.92116 1.97309 1.74434 1.77 1.97309 2.02213 1.77 1.79426 1.74434 1.77 1.56825 1.5683 1.77 1.79426 1.5683 1.56836 2.02213 2.06717 1.79426 1.81649 2.06717 2.1071 1.81649 1.83602 1.79426 1.81649 1.56836 1.56842 1.81649 1.83602 1.56842 1.56849 2.1071 2.14052 1.83602 1.85184 2.14052 2.16505 1.85184 1.86179 1.83602 1.85184 1.56849 1.56855 1.85184 1.86179 1.56855 1.56861 2.15204 2.11713 1.8405 1.82002 2.11713 2.11245 1.82002 1.8226 1.8405 1.82002 1.56874 1.5688 1.82002 1.8226 1.5688 1.56886 2.11245 2.10384 1.8226 1.82876 2.10384 2.083 1.82876 1.82317 1.8226 1.82876 1.56886 1.56892 1.82876 1.82317 1.56892 1.56897 2.083 2.05731 1.82317 1.81134 2.05731 2.02517 1.81134 1.79582 1.82317 1.81134 1.56897 1.56903 1.81134 1.79582 1.56903 1.56908 2.02517 1.98782 1.79582 1.77772 1.98782 1.94755 1.77772 1.75807 1.79582 1.77772 1.56908 1.56913 1.77772 1.75807 1.56913 1.56918 1.94755 1.9062 1.75807 1.73781 1.9062 1.86514 1.73781 1.71769 1.75807 1.73781 1.56918 1.56923 1.73781 1.71769 1.56923 1.56928 1.86514 1.82339 1.71769 1.69837 1.82339 1.74274 1.69837 1.68603 1.71769 1.69837 1.56928 1.56932 1.69837 1.68603 1.56932 1.56937 0.630254 0.664904 0.791559 0.797207 0.664904 0.850013 0.797207 0.92525 0.791559 0.797207 0.89405 0.859835 1.13881 0.994178 1.30431 1.09224 0.994178 0.89405 1.09224 0.928574 1.30431 1.09224 1.45285 1.12593 1.09224 0.928574 1.12593 0.832753 0.89405 0.859835 0.928574 0.838321 0.928574 0.838321 0.832753 0.690177 4.42174 4.42264 4.16919 4.21774 4.42264 4.22173 4.21774 4.14071 4.16919 4.21774 4.12611 4.15993 4.21774 4.14071 4.15993 4.12052 1.45285 1.12593 1.57123 1.12862 1.57123 1.12862 1.66338 1.05641 1.12862 0.654532 1.05641 0.409462 4.03964 4.12611 4.05066 4.13421 3.9053 4.05066 3.80869 4.05148 4.05066 4.13421 4.05148 4.17287 3.80869 4.05148 3.73185 4.07981 4.05148 4.17287 4.07981 4.27085 4.07981 4.27085 4.20967 4.44884 5.34898 4.20839 6.73149 5.46957 5.62639 5.58341 6.98022 6.6317 5.58341 5.57264 6.6317 6.34017 7.40204 6.98022 8.63829 7.88507 8.63829 7.88507 9.65793 8.6307 5.34898 6.73149 4.20839 5.46957 1.13881 1.30431 0.994178 1.09224 1.30431 1.45285 1.09224 1.12593 0.994178 1.09224 0.89405 0.928574 1.09224 1.12593 0.928574 0.832753 0.630254 0.791559 0.664904 0.797207 0.791559 0.89405 0.797207 0.859835 0.664904 0.797207 0.850013 0.92525 0.89405 0.928574 0.859835 0.838321 0.928574 0.832753 0.838321 0.690177 1.45285 1.57123 1.12593 1.12862 1.57123 1.66338 1.12862 1.05641 1.12862 1.05641 0.654532 0.409462 7.40204 8.63829 6.98022 7.88507 8.63829 9.65793 7.88507 8.6307 3.9053 3.80869 4.05066 4.05148 4.03964 4.05066 4.12611 4.13421 4.05066 4.05148 4.13421 4.17287 3.80869 3.73185 4.05148 4.07981 4.05148 4.07981 4.17287 4.27085 4.07981 4.20967 4.27085 4.44884 5.62639 6.98022 5.58341 6.6317 5.58341 6.6317 5.57264 6.34017 4.42174 4.16919 4.42264 4.21774 4.16919 4.12611 4.21774 4.15993 4.42264 4.21774 4.22173 4.14071 4.21774 4.15993 4.14071 4.12052 -5.49223 -8.15136 -7.01389 -12.1682 -8.15136 -3.38454 -12.1682 -4.48514 -7.01389 -12.1682 -6.07018 -4.13046 -12.1682 -4.48514 -4.13046 -2.98329 -1.57985 -1.76283 -1.68847 -1.76336 -1.76283 -1.94051 -1.76336 -1.84419 -1.68847 -1.76336 -1.48926 -1.74851 -1.76336 -1.84419 -1.74851 -2.13162 -0.739608 -0.463132 -0.348609 -0.343534 -0.463132 -0.765899 -0.343534 -0.379449 -0.348609 -0.343534 -0.145268 -0.154