# vtk DataFile Version 3.0
#This file was generated by the deal.II library on 2020/5/27 at 9:04:49
ASCII
DATASET UNSTRUCTURED_GRID

POINTS 3760 double
0 0 0
0.0625 0 0
0 0.0625 0
0.0625 0.0625 0
0.0625 0 0
0.125 0 0
0.0625 0.0625 0
0.125 0.0625 0
0.125 0 0
0.1875 0 0
0.125 0.0625 0
0.1875 0.0625 0
0.1875 0 0
0.25 0 0
0.1875 0.0625 0
0.25 0.0625 0
0.8125 0 0
0.875 0 0
0.8125 0.0625 0
0.875 0.0625 0
0.875 0 0
0.9375 0 0
0.875 0.0625 0
0.9375 0.0625 0
0.9375 0 0
1 0 0
0.9375 0.0625 0
1 0.0625 0
0 0.0625 0
0.0625 0.0625 0
0 0.125 0
0.0625 0.125 0
0.0625 0.0625 0
0.125 0.0625 0
0.0625 0.125 0
0.125 0.125 0
0.125 0.0625 0
0.1875 0.0625 0
0.125 0.125 0
0.1875 0.125 0
0.875 0.0625 0
0.9375 0.0625 0
0.875 0.125 0
0.9375 0.125 0
0.9375 0.0625 0
1 0.0625 0
0.9375 0.125 0
1 0.125 0
0 0.125 0
0.0625 0.125 0
0 0.1875 0
0.0625 0.1875 0
0.0625 0.125 0
0.125 0.125 0
0.0625 0.1875 0
0.125 0.1875 0
0.125 0.125 0
0.1875 0.125 0
0.125 0.1875 0
0.1875 0.1875 0
0.875 0.125 0
0.9375 0.125 0
0.875 0.1875 0
0.9375 0.1875 0
0.9375 0.125 0
1 0.125 0
0.9375 0.1875 0
1 0.1875 0
0 0.1875 0
0.0625 0.1875 0
0 0.25 0
0.0625 0.25 0
0.875 0.1875 0
0.9375 0.1875 0
0.875 0.25 0
0.9375 0.25 0
0.9375 0.1875 0
1 0.1875 0
0.9375 0.25 0
1 0.25 0
0.875 0.25 0
0.9375 0.25 0
0.875 0.3125 0
0.9375 0.3125 0
0.9375 0.25 0
1 0.25 0
0.9375 0.3125 0
1 0.3125 0
0.9375 0.5 0
1 0.5 0
0.9375 0.5625 0
1 0.5625 0
0.8125 0.5625 0
0.875 0.5625 0
0.8125 0.625 0
0.875 0.625 0
0.875 0.5625 0
0.9375 0.5625 0
0.875 0.625 0
0.9375 0.625 0
0.9375 0.5625 0
1 0.5625 0
0.9375 0.625 0
1 0.625 0
0.75 0.625 0
0.8125 0.625 0
0.75 0.6875 0
0.8125 0.6875 0
0.8125 0.625 0
0.875 0.625 0
0.8125 0.6875 0
0.875 0.6875 0
0.875 0.625 0
0.9375 0.625 0
0.875 0.6875 0
0.9375 0.6875 0
0.9375 0.625 0
1 0.625 0
0.9375 0.6875 0
1 0.6875 0
0.6875 0.6875 0
0.75 0.6875 0
0.6875 0.75 0
0.75 0.75 0
0.75 0.6875 0
0.8125 0.6875 0
0.75 0.75 0
0.8125 0.75 0
0.8125 0.6875 0
0.875 0.6875 0
0.8125 0.75 0
0.875 0.75 0
0.875 0.6875 0
0.9375 0.6875 0
0.875 0.75 0
0.9375 0.75 0
0.9375 0.6875 0
1 0.6875 0
0.9375 0.75 0
1 0.75 0
0.625 0.75 0
0.6875 0.75 0
0.625 0.8125 0
0.6875 0.8125 0
0.6875 0.75 0
0.75 0.75 0
0.6875 0.8125 0
0.75 0.8125 0
0.75 0.75 0
0.8125 0.75 0
0.75 0.8125 0
0.8125 0.8125 0
0.8125 0.75 0
0.875 0.75 0
0.8125 0.8125 0
0.875 0.8125 0
0.875 0.75 0
0.9375 0.75 0
0.875 0.8125 0
0.9375 0.8125 0
0.9375 0.75 0
1 0.75 0
0.9375 0.8125 0
1 0.8125 0
0 0.8125 0
0.0625 0.8125 0
0 0.875 0
0.0625 0.875 0
0.5625 0.8125 0
0.625 0.8125 0
0.5625 0.875 0
0.625 0.875 0
0.625 0.8125 0
0.6875 0.8125 0
0.625 0.875 0
0.6875 0.875 0
0.6875 0.8125 0
0.75 0.8125 0
0.6875 0.875 0
0.75 0.875 0
0.75 0.8125 0
0.8125 0.8125 0
0.75 0.875 0
0.8125 0.875 0
0.8125 0.8125 0
0.875 0.8125 0
0.8125 0.875 0
0.875 0.875 0
0.875 0.8125 0
0.9375 0.8125 0
0.875 0.875 0
0.9375 0.875 0
0.9375 0.8125 0
1 0.8125 0
0.9375 0.875 0
1 0.875 0
0 0.875 0
0.0625 0.875 0
0 0.9375 0
0.0625 0.9375 0
0.0625 0.875 0
0.125 0.875 0
0.0625 0.9375 0
0.125 0.9375 0
0.125 0.875 0
0.1875 0.875 0
0.125 0.9375 0
0.1875 0.9375 0
0.1875 0.875 0
0.25 0.875 0
0.1875 0.9375 0
0.25 0.9375 0
0.25 0.875 0
0.3125 0.875 0
0.25 0.9375 0
0.3125 0.9375 0
0.5625 0.875 0
0.625 0.875 0
0.5625 0.9375 0
0.625 0.9375 0
0.625 0.875 0
0.6875 0.875 0
0.625 0.9375 0
0.6875 0.9375 0
0.6875 0.875 0
0.75 0.875 0
0.6875 0.9375 0
0.75 0.9375 0
0.75 0.875 0
0.8125 0.875 0
0.75 0.9375 0
0.8125 0.9375 0
0.8125 0.875 0
0.875 0.875 0
0.8125 0.9375 0
0.875 0.9375 0
0.875 0.875 0
0.9375 0.875 0
0.875 0.9375 0
0.9375 0.9375 0
0.9375 0.875 0
1 0.875 0
0.9375 0.9375 0
1 0.9375 0
0 0.9375 0
0.0625 0.9375 0
0 1 0
0.0625 1 0
0.0625 0.9375 0
0.125 0.9375 0
0.0625 1 0
0.125 1 0
0.125 0.9375 0
0.1875 0.9375 0
0.125 1 0
0.1875 1 0
0.1875 0.9375 0
0.25 0.9375 0
0.1875 1 0
0.25 1 0
0.25 0.9375 0
0.3125 0.9375 0
0.25 1 0
0.3125 1 0
0.5 0.9375 0
0.5625 0.9375 0
0.5 1 0
0.5625 1 0
0.5625 0.9375 0
0.625 0.9375 0
0.5625 1 0
0.625 1 0
0.625 0.9375 0
0.6875 0.9375 0
0.625 1 0
0.6875 1 0
0.6875 0.9375 0
0.75 0.9375 0
0.6875 1 0
0.75 1 0
0.75 0.9375 0
0.8125 0.9375 0
0.75 1 0
0.8125 1 0
0.8125 0.9375 0
0.875 0.9375 0
0.8125 1 0
0.875 1 0
0.875 0.9375 0
0.9375 0.9375 0
0.875 1 0
0.9375 1 0
0.9375 0.9375 0
1 0.9375 0
0.9375 1 0
1 1 0
0.375 0 0
0.40625 0 0
0.375 0.03125 0
0.40625 0.03125 0
0.40625 0 0
0.4375 0 0
0.40625 0.03125 0
0.4375 0.03125 0
0.375 0.03125 0
0.40625 0.03125 0
0.375 0.0625 0
0.40625 0.0625 0
0.40625 0.03125 0
0.4375 0.03125 0
0.40625 0.0625 0
0.4375 0.0625 0
0.4375 0 0
0.46875 0 0
0.4375 0.03125 0
0.46875 0.03125 0
0.46875 0 0
0.5 0 0
0.46875 0.03125 0
0.5 0.03125 0
0.4375 0.03125 0
0.46875 0.03125 0
0.4375 0.0625 0
0.46875 0.0625 0
0.46875 0.03125 0
0.5 0.03125 0
0.46875 0.0625 0
0.5 0.0625 0
0.5 0 0
0.53125 0 0
0.5 0.03125 0
0.53125 0.03125 0
0.53125 0 0
0.5625 0 0
0.53125 0.03125 0
0.5625 0.03125 0
0.5 0.03125 0
0.53125 0.03125 0
0.5 0.0625 0
0.53125 0.0625 0
0.53125 0.03125 0
0.5625 0.03125 0
0.53125 0.0625 0
0.5625 0.0625 0
0.5625 0 0
0.59375 0 0
0.5625 0.03125 0
0.59375 0.03125 0
0.59375 0 0
0.625 0 0
0.59375 0.03125 0
0.625 0.03125 0
0.5625 0.03125 0
0.59375 0.03125 0
0.5625 0.0625 0
0.59375 0.0625 0
0.59375 0.03125 0
0.625 0.03125 0
0.59375 0.0625 0
0.625 0.0625 0
0.625 0 0
0.65625 0 0
0.625 0.03125 0
0.65625 0.03125 0
0.65625 0 0
0.6875 0 0
0.65625 0.03125 0
0.6875 0.03125 0
0.625 0.03125 0
0.65625 0.03125 0
0.625 0.0625 0
0.65625 0.0625 0
0.65625 0.03125 0
0.6875 0.03125 0
0.65625 0.0625 0
0.6875 0.0625 0
0.6875 0 0
0.71875 0 0
0.6875 0.03125 0
0.71875 0.03125 0
0.71875 0 0
0.75 0 0
0.71875 0.03125 0
0.75 0.03125 0
0.6875 0.03125 0
0.71875 0.03125 0
0.6875 0.0625 0
0.71875 0.0625 0
0.71875 0.03125 0
0.75 0.03125 0
0.71875 0.0625 0
0.75 0.0625 0
0.75 0 0
0.78125 0 0
0.75 0.03125 0
0.78125 0.03125 0
0.78125 0 0
0.8125 0 0
0.78125 0.03125 0
0.8125 0.03125 0
0.75 0.03125 0
0.78125 0.03125 0
0.75 0.0625 0
0.78125 0.0625 0
0.78125 0.03125 0
0.8125 0.03125 0
0.78125 0.0625 0
0.8125 0.0625 0
0.375 0.0625 0
0.40625 0.0625 0
0.375 0.09375 0
0.40625 0.09375 0
0.40625 0.0625 0
0.4375 0.0625 0
0.40625 0.09375 0
0.4375 0.09375 0
0.375 0.09375 0
0.40625 0.09375 0
0.375 0.125 0
0.40625 0.125 0
0.40625 0.09375 0
0.4375 0.09375 0
0.40625 0.125 0
0.4375 0.125 0
0.4375 0.0625 0
0.46875 0.0625 0
0.4375 0.09375 0
0.46875 0.09375 0
0.46875 0.0625 0
0.5 0.0625 0
0.46875 0.09375 0
0.5 0.09375 0
0.4375 0.09375 0
0.46875 0.09375 0
0.4375 0.125 0
0.46875 0.125 0
0.46875 0.09375 0
0.5 0.09375 0
0.46875 0.125 0
0.5 0.125 0
0.5 0.0625 0
0.53125 0.0625 0
0.5 0.09375 0
0.53125 0.09375 0
0.53125 0.0625 0
0.5625 0.0625 0
0.53125 0.09375 0
0.5625 0.09375 0
0.5 0.09375 0
0.53125 0.09375 0
0.5 0.125 0
0.53125 0.125 0
0.53125 0.09375 0
0.5625 0.09375 0
0.53125 0.125 0
0.5625 0.125 0
0.5625 0.0625 0
0.59375 0.0625 0
0.5625 0.09375 0
0.59375 0.09375 0
0.59375 0.0625 0
0.625 0.0625 0
0.59375 0.09375 0
0.625 0.09375 0
0.5625 0.09375 0
0.59375 0.09375 0
0.5625 0.125 0
0.59375 0.125 0
0.59375 0.09375 0
0.625 0.09375 0
0.59375 0.125 0
0.625 0.125 0
0.625 0.0625 0
0.65625 0.0625 0
0.625 0.09375 0
0.65625 0.09375 0
0.65625 0.0625 0
0.6875 0.0625 0
0.65625 0.09375 0
0.6875 0.09375 0
0.625 0.09375 0
0.65625 0.09375 0
0.625 0.125 0
0.65625 0.125 0
0.65625 0.09375 0
0.6875 0.09375 0
0.65625 0.125 0
0.6875 0.125 0
0.6875 0.0625 0
0.71875 0.0625 0
0.6875 0.09375 0
0.71875 0.09375 0
0.71875 0.0625 0
0.75 0.0625 0
0.71875 0.09375 0
0.75 0.09375 0
0.6875 0.09375 0
0.71875 0.09375 0
0.6875 0.125 0
0.71875 0.125 0
0.71875 0.09375 0
0.75 0.09375 0
0.71875 0.125 0
0.75 0.125 0
0.75 0.0625 0
0.78125 0.0625 0
0.75 0.09375 0
0.78125 0.09375 0
0.78125 0.0625 0
0.8125 0.0625 0
0.78125 0.09375 0
0.8125 0.09375 0
0.75 0.09375 0
0.78125 0.09375 0
0.75 0.125 0
0.78125 0.125 0
0.78125 0.09375 0
0.8125 0.09375 0
0.78125 0.125 0
0.8125 0.125 0
0.4375 0.125 0
0.46875 0.125 0
0.4375 0.15625 0
0.46875 0.15625 0
0.46875 0.125 0
0.5 0.125 0
0.46875 0.15625 0
0.5 0.15625 0
0.4375 0.15625 0
0.46875 0.15625 0
0.4375 0.1875 0
0.46875 0.1875 0
0.46875 0.15625 0
0.5 0.15625 0
0.46875 0.1875 0
0.5 0.1875 0
0.5 0.125 0
0.53125 0.125 0
0.5 0.15625 0
0.53125 0.15625 0
0.53125 0.125 0
0.5625 0.125 0
0.53125 0.15625 0
0.5625 0.15625 0
0.5 0.15625 0
0.53125 0.15625 0
0.5 0.1875 0
0.53125 0.1875 0
0.53125 0.15625 0
0.5625 0.15625 0
0.53125 0.1875 0
0.5625 0.1875 0
0.5625 0.125 0
0.59375 0.125 0
0.5625 0.15625 0
0.59375 0.15625 0
0.59375 0.125 0
0.625 0.125 0
0.59375 0.15625 0
0.625 0.15625 0
0.5625 0.15625 0
0.59375 0.15625 0
0.5625 0.1875 0
0.59375 0.1875 0
0.59375 0.15625 0
0.625 0.15625 0
0.59375 0.1875 0
0.625 0.1875 0
0.625 0.125 0
0.65625 0.125 0
0.625 0.15625 0
0.65625 0.15625 0
0.65625 0.125 0
0.6875 0.125 0
0.65625 0.15625 0
0.6875 0.15625 0
0.625 0.15625 0
0.65625 0.15625 0
0.625 0.1875 0
0.65625 0.1875 0
0.65625 0.15625 0
0.6875 0.15625 0
0.65625 0.1875 0
0.6875 0.1875 0
0.6875 0.125 0
0.71875 0.125 0
0.6875 0.15625 0
0.71875 0.15625 0
0.71875 0.125 0
0.75 0.125 0
0.71875 0.15625 0
0.75 0.15625 0
0.6875 0.15625 0
0.71875 0.15625 0
0.6875 0.1875 0
0.71875 0.1875 0
0.71875 0.15625 0
0.75 0.15625 0
0.71875 0.1875 0
0.75 0.1875 0
0.75 0.125 0
0.78125 0.125 0
0.75 0.15625 0
0.78125 0.15625 0
0.78125 0.125 0
0.8125 0.125 0
0.78125 0.15625 0
0.8125 0.15625 0
0.75 0.15625 0
0.78125 0.15625 0
0.75 0.1875 0
0.78125 0.1875 0
0.78125 0.15625 0
0.8125 0.15625 0
0.78125 0.1875 0
0.8125 0.1875 0
0.8125 0.125 0
0.84375 0.125 0
0.8125 0.15625 0
0.84375 0.15625 0
0.84375 0.125 0
0.875 0.125 0
0.84375 0.15625 0
0.875 0.15625 0
0.8125 0.15625 0
0.84375 0.15625 0
0.8125 0.1875 0
0.84375 0.1875 0
0.84375 0.15625 0
0.875 0.15625 0
0.84375 0.1875 0
0.875 0.1875 0
0.4375 0.1875 0
0.46875 0.1875 0
0.4375 0.21875 0
0.46875 0.21875 0
0.46875 0.1875 0
0.5 0.1875 0
0.46875 0.21875 0
0.5 0.21875 0
0.4375 0.21875 0
0.46875 0.21875 0
0.4375 0.25 0
0.46875 0.25 0
0.46875 0.21875 0
0.5 0.21875 0
0.46875 0.25 0
0.5 0.25 0
0.5 0.1875 0
0.53125 0.1875 0
0.5 0.21875 0
0.53125 0.21875 0
0.625 0.1875 0
0.65625 0.1875 0
0.625 0.21875 0
0.65625 0.21875 0
0.65625 0.1875 0
0.6875 0.1875 0
0.65625 0.21875 0
[...]
POINT_DATA 3760
SCALARS solution double 1
LOOKUP_TABLE default
-1.56921 -1.56906 -1.56906 -1.42126 -1.56906 -1.56887 -1.42126 -1.26994 -1.56887 -1.56861 -1.26994 -1.08644 -1.56861 -1.56827 -1.08644 -0.969161 1.5647 1.56638 -1.03457 0.286598 1.56638 1.56733 0.286598 1.11071 1.56733 1.56795 1.11071 1.56799 -1.56906 -1.42126 -1.56887 -1.26994 -1.42126 -1.26994 -1.26994 -0.947319 -1.26994 -1.08644 -0.947319 -0.491917 0.286598 1.11071 -0.737321 0.782634 1.11071 1.56799 0.782634 1.56805 -1.56887 -1.26994 -1.56861 -1.08644 -1.26994 -0.947319 -1.08644 -0.491917 -0.947319 -0.491917 -0.491917 0.204354 -0.737321 0.782634 -0.898308 0.685068 0.782634 1.56805 0.685068 1.56814 -1.56861 -1.08644 -1.56827 -0.969161 -0.898308 0.685068 -0.458245 0.797201 0.685068 1.56814 0.797201 1.56825 -0.458245 0.797201 0.393862 1.09059 0.797201 1.56825 1.09059 1.56836 2.11316 1.56874 2.19562 1.56886 4.07379 2.98182 3.81442 2.87644 2.98182 2.19562 2.87644 2.18919 2.19562 1.56886 2.18919 1.56897 5.23152 3.81442 4.37757 3.42289 3.81442 2.87644 3.42289 2.73391 2.87644 2.18919 2.73391 2.1322 2.18919 1.56897 2.1322 1.56908 5.6719 4.37757 4.37757 3.63553 4.37757 3.42289 3.63553 3.05924 3.42289 2.73391 3.05924 2.5323 2.73391 2.1322 2.5323 2.04107 2.1322 1.56908 2.04107 1.56918 5.23152 4.37757 3.81442 3.42289 4.37757 3.63553 3.42289 3.05924 3.63553 3.05924 3.05924 2.67833 3.05924 2.5323 2.67833 2.29954 2.5323 2.04107 2.29954 1.93062 2.04107 1.56918 1.93062 1.56928 1.5647 -1.03457 1.56638 0.286598 4.07379 3.81442 2.98182 2.87644 3.81442 3.42289 2.87644 2.73391 3.42289 3.05924 2.73391 2.5323 3.05924 2.67833 2.5323 2.29954 2.67833 2.29954 2.29954 2.05599 2.29954 1.93062 2.05599 1.81184 1.93062 1.56928 1.81184 1.56937 1.56638 0.286598 1.56733 1.11071 0.286598 -0.737321 1.11071 0.782634 -0.737321 -0.898308 0.782634 0.685068 -0.898308 -0.458245 0.685068 0.797201 -0.458245 0.393862 0.797201 1.09059 2.98182 2.87644 2.19562 2.18919 2.87644 2.73391 2.18919 2.1322 2.73391 2.5323 2.1322 2.04107 2.5323 2.29954 2.04107 1.93062 2.29954 2.05599 1.93062 1.81184 2.05599 1.81184 1.81184 1.69073 1.81184 1.56937 1.69073 1.56945 1.56733 1.11071 1.56795 1.56799 1.11071 0.782634 1.56799 1.56805 0.782634 0.685068 1.56805 1.56814 0.685068 0.797201 1.56814 1.56825 0.797201 1.09059 1.56825 1.56836 2.11316 2.19562 1.56874 1.56886 2.19562 2.18919 1.56886 1.56897 2.18919 2.1322 1.56897 1.56908 2.1322 2.04107 1.56908 1.56918 2.04107 1.93062 1.56918 1.56928 1.93062 1.81184 1.56928 1.56937 1.81184 1.69073 1.56937 1.56945 1.69073 1.56945 1.56945 1.56952 -1.56712 -1.56665 -1.72584 -2.02582 -1.56665 -1.56603 -2.02582 -2.4368 -1.72584 -2.02582 -1.7915 -2.37272 -2.02582 -2.4368 -2.37272 -3.18268 -1.56603 -1.5652 -2.4368 -2.96985 -1.5652 -1.56403 -2.96985 -3.62131 -2.4368 -2.96985 -3.18268 -4.25222 -2.96985 -3.62131 -4.25222 -5.57954 -1.56403 -1.56222 -3.62131 -4.37227 -1.56222 -1.5591 -4.37227 -5.23582 -3.62131 -4.37227 -5.57954 -7.09909 -4.37227 -5.23582 -7.09909 -8.6573 -1.5591 -1.55239 -5.23582 -6.51527 -1.55239 -1.52763 -6.51527 -9.8958 -5.23582 -6.51527 -8.6573 -10.0249 -6.51527 -9.8958 -10.0249 -11.0042 -1.52763 1.44671 -9.8958 -8.20071 1.44671 1.54529 -8.20071 -3.49325 -9.8958 -8.20071 -11.0042 -9.2444 -8.20071 -3.49325 -9.2444 -6.34194 1.54529 1.55659 -3.49325 -1.74528 1.55659 1.56095 -1.74528 -0.863145 -3.49325 -1.74528 -6.34194 -4.37301 -1.74528 -0.863145 -4.37301 -2.98011 1.56095 1.56326 -0.863145 -0.338049 1.56326 1.5647 -0.338049 -0.113398 -0.863145 -0.338049 -2.98011 -1.98464 -0.338049 -0.113398 -1.98464 -1.03457 -1.7915 -2.37272 -1.67073 -2.48904 -2.37272 -3.18268 -2.48904 -3.6636 -1.67073 -2.48904 -1.27169 -2.24849 -2.48904 -3.6636 -2.24849 -3.71148 -3.18268 -4.25222 -3.6636 -5.26572 -4.25222 -5.57954 -5.26572 -7.32872 -3.6636 -5.26572 -3.71148 -5.80112 -5.26572 -7.32872 -5.80112 -8.6558 -5.57954 -7.09909 -7.32872 -9.7718 -7.09909 -8.6573 -9.7718 -12.2532 -7.32872 -9.7718 -8.6558 -12.3248 -9.7718 -12.2532 -12.3248 -16.4896 -8.6573 -10.0249 -12.2532 -13.9306 -10.0249 -11.0042 -13.9306 -12.0683 -12.2532 -13.9306 -16.4896 -19.923 -13.9306 -12.0683 -19.923 -21.3433 -11.0042 -9.2444 -12.0683 -8.82688 -9.2444 -6.34194 -8.82688 -8.36435 -12.0683 -8.82688 -21.3433 -14.963 -8.82688 -8.36435 -14.963 -11.1046 -6.34194 -4.37301 -8.36435 -6.4492 -4.37301 -2.98011 -6.4492 -4.69728 -8.36435 -6.4492 -11.1046 -8.21484 -6.4492 -4.69728 -8.21484 -5.97881 -2.98011 -1.98464 -4.69728 -3.3521 -1.98464 -1.03457 -3.3521 -2.41648 -4.69728 -3.3521 -5.97881 -4.31109 -3.3521 -2.41648 -4.31109 -3.10098 -3.71148 -5.80112 -3.13354 -5.56278 -5.80112 -8.6558 -5.56278 -9.12109 -3.13354 -5.56278 -1.749 -4.22451 -5.56278 -9.12109 -4.22451 -8.1098 -8.6558 -12.3248 -9.12109 -14.2316 -12.3248 -16.4896 -14.2316 -21.1481 -9.12109 -14.2316 -8.1098 -14.3204 -14.2316 -21.1481 -14.3204 -23.6408 -16.4896 -19.923 -21.1481 -29.1485 -19.923 -21.3433 -29.1485 -21.727 -21.1481 -29.1485 -23.6408 -38.7267 -29.1485 -21.727 -38.7267 -34.2554 -21.3433 -14.963 -21.727 -18.2729 -14.963 -11.1046 -18.2729 -13.0843 -21.727 -18.2729 -34.2554 -19.9566 -18.2729 -13.0843 -19.9566 -13.3623 -11.1046 -8.21484 -13.0843 -9.32548 -8.21484 -5.97881 -9.32548 -6.68756 -13.0843 -9.32548 -13.3623 -9.34975 -9.32548 -6.68756 -9.34975 -6.66694 -5.97881 -4.31109 -6.68756 -4.80284 -4.31109 -3.10098 -4.80284 -3.44264 -6.68756 -4.80284 -6.66694 -4.77972 -4.80284 -3.44264 -4.77972 -3.4162 -3.10098 -2.17432 -3.44264 -2.45388 -2.17432 -0.737321 -2.45388 -1.93514 -3.44264 -2.45388 -3.4162 -2.37669 -2.45388 -1.93514 -2.37669 -0.898308 -1.749 -4.22451 0.539821 -1.55539 -4.22451 -8.1098 -1.55539 -5.4603 0.539821 -1.55539 3.68352 2.29635 -1.55539 -5.4603 2.29635 -1.0036 -8.1098 -14.3204 -5.4603 -12 -34.2554 -19.9566 -24.1493 -16.7092 -19.9566 -13.3623 -16.7092 -11.3739 -16.7092 -11.3739 -10.6264 -7.98663 -13.3623 -9.34975 -11.3739 -8.14954 -9.34975 -6.66694 -8.14954 -5.88879 -11.3739 -8.14954 -7.98663 -6.06525 -8.14954 -5.88879 -6.06525 -4.51399 -6.66694 -4.77972 -5.88879 -4.24679 -4.77972 -3.4162 -4.24679 -3.036 -5.88879 -4.24679 -4.51399 -3.2931 -4.24679 -3.036 -3.2931 -2.34314 -14.2025 -10.6264 -5.98024 -5.08828 -10.6264 -7.98663 -5.08828 -4.42627 -5.98024 -5.08828 0.680112 -0.619932 -5.08828 -4.42627 -0.619932 -1.12161 -7.98663 -6.06525 -4.42627 -3.62228 -6.06525 -4.51399 -3.62228 -2.8067 -4.42627 -3.62228 -1.12161 -1.18614 -3.62228 -2.8067 -1.18614 -1.01281 9.23192 10.7196 11.716 14.0386 10.7196 12.24 14.0386 17.3209 11.716 14.0386 13.9359 16.3263 14.0386 17.3209 16.3263 21.3935 12.24 13.8223 17.3209 21.5142 17.3209 21.5142 21.3935 34.109 4.41931 0.680112 10.176 5.4455 10.176 5.4455 13.109 8.46393 0.680112 -0.619932 5.4455 3.06646 -0.619932 -1.12161 3.06646 1.73445 5.4455 3.06646 8.46393 5.75967 3.06646 1.73445 5.75967 3.9961 -1.56712 -1.72584 -1.56665 -2.02582 -1.72584 -1.7915 -2.02582 -2.37272 -1.56665 -2.02582 -1.56603 -2.4368 -2.02582 -2.37272 -2.4368 -3.18268 -1.7915 -1.67073 -2.37272 -2.48904 -1.67073 -1.27169 -2.48904 -2.24849 -2.37272 -2.48904 -3.18268 -3.6636 -2.48904 -2.24849 -3.6636 -3.71148 9.23192 11.716 10.7196 14.0386 11.716 13.9359 14.0386 16.3263 10.7196 14.0386 12.24 17.3209 14.0386 16.3263 17.3209 21.3935 13.9359 16.3263 16.3263 16.6442 16.3263 21.3935 16.6442 17.4063 16.3263 16.6442 21.3935 17.4063 16.6442 17.4063 17.4063 9.17389 21.3935 34.109 17.4063 34.3884 34.109 38.2675 34.3884 46.1984 17.4063 34.3884 9.17389 15.3708 46.1984 28.8733 25.251 22.232 28.8733 20.5668 22.232 18.096 -1.56603 -2.4368 -1.5652 -2.96985 -2.4368 -3.18268 -2.96985 -4.25222 -1.5652 -2.96985 -1.56403 -3.62131 -2.96985 -4.25222 -3.62131 -5.57954 -3.18268 -3.6636 -4.25222 -5.26572 -3.6636 -3.71148 -5.26572 -5.80112 -4.25222 -5.26572 -5.57954 -7.32872 -5.26572 -5.80112 -7.32872 -8.6558 -3.71148 -3.13354 -5.80112 -5.56278 -3.13354 -1.749 -5.56278 -4.22451 -5.80112 -5.56278 -8.6558 -9.12109 -5.56278 -4.22451 -9.12109 -8.1098 -1.749 0.539821 -4.22451 -1.55539 0.539821 3.68352 -1.55539 2.29635 -4.22451 -1.55539 -8.1098 -5.4603 -1.55539 2.29635 -5.4603 -1.0036 12.24 17.3209 13.8223 21.5142 17.3209 21.3935 21.5142 34.109 21.3935 17.4063 34.109 34.3884 17.4063 9.17389 34.3884 15.3708 34.109 34.3884 38.2675 46.1984 9.17389 15.3708 15.3708 16.4506 15.3708 25.251 16.4506 18.5334 15.3708 16.4506 25.251 18.5334 16.4506 18.5334 18.5334 17.1334 25.251 22.232 18.5334 18.1906 22.232 18.096 18.1906 16.0767 18.5334 18.1906 17.1334 16.0538 18.1906 16.0767 16.0538 14.4762 -1.56403 -3.62131 -1.56222 -4.37227 -3.62131 -5.57954 -4.37227 -7.09909 -1.56222 -4.37227 -1.5591 -5.23582 -4.37227 -7.09909 -5.23582 -8.6573 -5.57954 -7.32872 -7.09909 -9.7718 -7.32872 -8.6558 -9.7718 -12.3248 -7.09909 -9.7718 -8.6573 -12.2532 -9.7718 -12.3248 -12.2532 -16.4896 -8.6558 -9.12109 -12.3248 -14.2316 -9.12109 -8.1098 -14.2316 -14.3204 -12.3248 -14.2316 -16.4896 -21.1481 -14.2316 -14.3204 -21.1481 -23.6408 -8.1098 -5.4603 -14.3204 -12 46.1984 25.251 28.8733 22.232 28.8733 22.232 20.5668 18.096 25.251 18.5334 22.232 18.1906 18.5334 17.1334 18.1906 16.0538 22.232 18.1906 18.096 16.0767 18.1906 16.0538 16.0767 14.4762 -1.5591 -5.23582 -1.55239 -6.51527 -5.23582 -8.6573 -6.51527 -10.0249 -1.55239 -6.51527 -1.52763 -9.8958 -6.51527 -10.0249 -9.8958 -11.0042 -8.6573 -12.2532 -10.0249 -13.9306 -12.2532 -16.4896 -13.9306 -19.923 -10.0249 -13.9306 -11.0042 -12.0683 -13.9306 -19.923 -12.0683 -21.3433 -16.4896 -21.1481 -19.923 -29.1485 -21.1481 -23.6408 -29.1485 -38.7267 -19.923 -29.1485 -21.3433 -21.727 -29.1485 -38.7267 -21.727 -34.2554 4.41931 10.176 0.680112 5.4455 10.176 13.109 5.4455 8.46393 -1.52763 -9.8958 1.44671 -8.20071 -9.8958 -11.0042 -8.20071 -9.2444 1.44671 -8.20071 1.54529 -3.49325 -8.20071 -9.2444 -3.49325 -6.34194 -11.0042 -12.0683 -9.2444 -8.82688 -12.0683 -21.3433 -8.82688 -14.963 -9.2444 -8.82688 -6.34194 -8.36435 -8.82688 -14.963 -8.36435 -11.1046 -21.3433 -21.727 -14.963 -18.2729 -21.727 -34.2554 -18.2729 -19.9566 -14.963 -18.2729 -11.1046 -13.0843 -18.2729 -19.9566 -13.0843 -13.3623 -34.2554 -24.1493 -19.9566 -16.7092 -19.9566 -16.7092 -13.3623 -11.3739 -16.7092 -10.6264 -11.3739 -7.98663 -14.2025 -5.98024 -10.6264 -5.08828 -5.98024 0.680112 -5.08828 -0.619932 -10.6264 -5.08828 -7.98663 -4.42627 -5.08828 -0.619932 -4.42627 -1.12161 0.680112 5.4455 -0.619932 3.06646 5.4455 8.46393 3.06646 5.75967 -0.619932 3.06646 -1.12161 1.73445 3.06646 5.75967 1.73445 3.9961 1.54529 -3.49325 1.55659 -1.74528 -3.49325 -6.34194 -1.74528 -4.37301 1.55659 -1.74528 1.56095 -0.863145 -1.74528 -4.37301 -0.863145 -2.98011 -6.34194 -8.36435 -4.37301 -6.4492 -8.36435 -11.1046 -6.4492 -8.21484 -4.37301 -6.4492 -2.98011 -4.69728 -6.4492 -8.21484 -4.69728 -5.97881 -11.1046 -13.0843 -8.21484 -9.32548 -13.0843 -13.3623 -9.32548 -9.34975 -8.21484 -9.32548 -5.97881 -6.68756 -9.32548 -9.34975 -6.68756 -6.66694 -13.3623 -11.3739 -9.34975 -8.14954 -11.3739 -7.98663 -8.14954 -6.06525 -9.34975 -8.14954 -6.66694 -5.88879 -8.14954 -6.06525 -5.88879 -4.51399 -7.98663 -4.42627 -6.06525 -3.62228 -4.42627 -1.12161 -3.62228 -1.18614 -6.06525 -3.62228 -4.51399 -2.8067 -3.62228 -1.18614 -2.8067 -1.01281 1.56095 -0.863145 1.56326 -0.338049 -0.863145 -2.98011 -0.338049 -1.98464 1.56326 -0.338049 1.5647 -0.113398 -0.338049 -1.98464 -0.113398 -1.03457 -2.98011 -4.69728 -1.98464 -3.3521 -4.69728 -5.97881 -3.3521 -4.31109 -1.98464 -3.3521 -1.03457 -2.41648 -3.3521 -4.31109 -2.41648 -3.10098 -5.97881 -6.68756 -4.31109 -4.80284 -6.68756 -6.66694 -4.80284 -4.77972 -4.31109 -4.80284 -3.10098 -3.44264 -4.80284 -4.77972 -3.44264 -3.4162 -6.66694 -5.88879 -4.77972 -4.24679 -5.88879 -4.51399 -4.24679 -3.2931 -4.77972 -4.24679 -3.4162 -3.036 -4.24679 -3.2931 -3.036 -2.34314 -3.10098 -3.44264 -2.17432 -2.45388 -3.44264 -3.4162 -2.45388 -2.37669 -2.17432 -2.45388 -0.737321 -1.93514 -2.45388 -2.37669 -1.93514 -0.898308 -1.56827 -1.56806 -1.28595 -1.30974 -1.56806 -1.5678 -1.30974 -1.38502 -1.28595 -1.30974 -0.969161 -1.00257 -1.30974 -1.38502 -1.00257 -1.14574 -1.5678 -1.5675 -1.38502 -1.51864 -1.5675 -1.56712 -1.51864 -1.72584 -1.38502 -1.51864 -1.14574 -1.39671 -1.51864 -1.72584 -1.39671 -1.7915 -1.08644 -0.650859 -0.529918 -0.479622 -0.650859 -0.969161 -0.479622 -0.518067 -0.529918 -0.479622 -0.491917 -0.169399 -0.479622 -0.518067 -0.169399 -0.109369 -0.969161 -1.00257 -0.518067 -0.617772 -1.00257 -1.14574 -0.617772 -0.801678 -0.518067 -0.617772 -0.109369 -0.149173 -0.617772 -0.801678 -0.149173 -0.312237 -1.14574 -1.39671 -0.801678 -1.13181 -1.39671 -1.7915 -1.13181 -1.67073 -0.801678 -1.13181 -0.312237 -0.659557 -1.13181 -1.67073 -0.659557 -1.27169 -1.03457 -1.45663 -2.41648 -1.81425 -1.45663 0.286598 -1.81425 -1.39314 -2.41648 -1.81425 -3.10098 -2.17432 -1.81425 -1.39314 -2.17432 -0.737321 -0.491917 -0.169399 0.134413 0.243942 -0.169399 -0.109369 0.243942 0.379654 0.134413 0.243942 0.204354 0.660394 0.243942 0.379654 0.660394 0.946234 -0.109369 -0.149173 0.379654 0.436466 -0.149173 -0.312237 0.436466 0.358642 0.379654 0.436466 0.946234 1.1534 0.436466 0.358642 1.1534 1.23209 -0.312237 -0.659557 0.358642 0.0744408 -0.659557 -1.27169 0.0744408 -0.511557 0.358642 0.0744408 1.23209 1.10545 0.0744408 -0.511557 1.10545 0.669595 -1.27169 -2.24849 -0.511557 -1.52512 -2.24849 -3.71148 -1.52512 -3.13354 -0.511557 -1.52512 0.669595 -0.216431 -1.52512 -3.13354 -0.216431 -1.749 -1.08644 -0.529918 -0.650859 -0.479622 -0.529918 -0.491917 -0.479622 -0.169399 -0.650859 -0.479622 -0.969161 -0.518067 -0.479622 -0.169399 -0.518067 -0.109369 -0.491917 0.134413 -0.169399 0.243942 0.134413 0.204354 0.243942 0.660394 -0.169399 0.243942 -0.109369 0.379654 0.243942 0.660394 0.379654 0.946234 0.204354 0.660394 0.660394 1.12082 0.660394 0.946234 1.12082 1.58143 0.660394 1.12082 0.946234 1.58143 1.12082 1.58143 1.58143 2.25925 0.946234 1.1534 1.58143 1.99518 1.1534 1.23209 1.99518 2.30667 1.58143 1.99518 2.25925 2.93604 1.99518 2.30667 2.93604 3.55557 1.23209 1.10545 2.30667 2.43981 1.10545 0.669595 2.43981 2.29241 2.30667 2.43981 3.55557 4.04869 2.43981 2.29241 4.04869 4.32745 0.669595 -0.216431 2.29241 1.72404 -0.216431 -1.749 1.72404 0.539821 2.29241 1.72404 4.32745 4.26753 1.72404 0.539821 4.26753 3.68352 -3.4162 -2.37669 -3.036 -2.1424 -2.37669 -0.898308 -2.1424 -1.67485 -3.036 -2.1424 -2.34314 -1.58006 -2.1424 -1.67485 -1.58006 -0.458245 -1.56827 -1.28595 -1.56806 -1.30974 -1.28595 -0.969161 -1.30974 -1.00257 -1.56806 -1.30974 -1.5678 -1.38502 -1.30974 -1.00257 -1.38502 -1.14574 -0.969161 -0.518067 -1.00257 -0.617772 -0.518067 -0.109369 -0.617772 -0.149173 -1.00257 -0.617772 -1.14574 -0.801678 -0.617772 -0.149173 -0.801678 -0.312237 -0.109369 0.379654 -0.149173 0.436466 0.379654 0.946234 0.436466 1.1534 -0.149173 0.436466 -0.312237 0.358642 0.436466 1.1534 0.358642 1.23209 0.946234 1.58143 1.1534 1.99518 1.58143 2.25925 1.99518 2.93604 1.1534 1.99518 1.23209 2.30667 1.99518 2.93604 2.30667 3.55557 2.25925 2.93604 2.93604 3.93222 2.93604 3.55557 3.93222 4.92831 2.93604 3.93222 3.55557 4.92831 3.93222 4.92831 4.92831 6.36026 3.55557 4.04869 4.92831 5.86652 4.04869 4.32745 5.86652 6.69094 4.92831 5.86652 6.36026 7.79663 5.86652 6.69094 7.79663 9.23192 4.32745 4.26753 6.69094 7.32363 4.26753 3.68352 7.32363 7.59203 6.69094 7.32363 9.23192 10.7196 7.32363 7.59203 10.7196 12.24 3.68352 2.29635 7.59203 7.14905 2.29635 -1.0036 7.14905 5.12008 7.59203 7.14905 12.24 13.8223 7.14905 5.12008 13.8223 15.9543 -4.51399 -3.2931 -2.8067 -2.06831 -3.2931 -2.34314 -2.06831 -1.4366 -2.8067 -2.06831 -1.01281 -0.73291 -2.06831 -1.4366 -0.73291 -0.416723 -2.34314 -1.58006 -1.4366 -0.918712 -1.58006 -0.458245 -0.918712 -0.634771 -1.4366 -0.918712 -0.416723 -0.0852357 -0.918712 -0.634771 -0.0852357 0.393862 -1.5678 -1.38502 -1.5675 -1.51864 -1.38502 -1.14574 -1.51864 -1.39671 -1.5675 -1.51864 -1.56712 -1.72584 -1.51864 -1.39671 -1.72584 -1.7915 -1.14574 -0.801678 -1.39671 -1.13181 -0.801678 -0.312237 -1.13181 -0.659557 -1.39671 -1.13181 -1.7915 -1.67073 -1.13181 -0.659557 -1.67073 -1.27169 -0.312237 0.358642 -0.659557 0.0744408 0.358642 1.23209 0.0744408 1.10545 -0.659557 0.0744408 -1.27169 -0.511557 0.0744408 1.10545 -0.511557 0.669595 1.23209 2.30667 1.10545 2.43981 2.30667 3.55557 2.43981 4.04869 1.10545 2.43981 0.669595 2.29241 2.43981 4.04869 2.29241 4.32745 3.55557 4.92831 4.04869 5.86652 4.92831 6.36026 5.86652 7.79663 4.04869 5.86652 4.32745 6.69094 5.86652 7.79663 6.69094 9.23192 6.36026 7.79663 7.79663 9.74264 7.79663 9.23192 9.74264 11.716 7.79663 9.74264 9.23192 11.716 9.74264 11.716 11.716 13.9359 15.9543 21.4006 23.5656 34.4879 21.4006 19.0557 34.4879 23.7124 23.5656 34.4879 38.2675 28.7683 34.4879 23.7124 28.7683 22.3576 -1.12161 -1.18614 1.73445 1.02151 -1.18614 -1.01281 1.02151 0.684361 1.73445 1.02151 3.9961 2.8666 1.02151 0.684361 2.8666 2.16507 -1.01281 -0.73291 0.684361 0.573273 -0.73291 -0.416723 0.573273 0.599993 0.684361 0.573273 2.16507 1.7494 0.573273 0.599993 1.7494 1.52623 -0.416723 -0.0852357 0.599993 0.72638 -0.0852357 0.393862 0.72638 0.951975 0.599993 0.72638 1.52623 1.43734 0.72638 0.951975 1.43734 1.44024 0.393862 1.03865 0.951975 1.19628 1.03865 1.09059 1.19628 1.34486 0.951975 1.19628 1.44024 1.48254 1.19628 1.34486 1.48254 1.52023 1.09059 1.42529 1.34486 1.46968 1.42529 1.56836 1.46968 1.56842 1.34486 1.46968 1.52023 1.54776 1.46968 1.56842 1.54776 1.56849 -1.27169 -0.511557 -2.24849 -1.52512 -0.511557 0.669595 -1.52512 -0.216431 -2.24849 -1.52512 -3.71148 -3.13354 -1.52512 -0.216431 -3.13354 -1.749 0.669595 2.29241 -0.216431 1.72404 2.29241 4.32745 1.72404 4.26753 -0.216431 1.72404 -1.749 0.539821 1.72404 4.26753 0.539821 3.68352 4.32745 6.69094 4.26753 7.32363 6.69094 9.23192 7.32363 10.7196 4.26753 7.32363 3.68352 7.59203 7.32363 10.7196 7.59203 12.24 22.3576 13.109 20.5668 14.2847 13.109 8.46393 14.2847 10.3057 20.5668 14.2847 18.096 14.2179 14.2847 10.3057 14.2179 11.0431 8.46393 5.75967 10.3057 7.56123 5.75967 3.9961 7.56123 5.63729 10.3057 7.56123 11.0431 8.57774 7.56123 5.63729 8.57774 6.70825 3.9961 2.8666 5.63729 4.29403 2.8666 2.16507 4.29403 3.36777 5.63729 4.29403 6.70825 5.31133 4.29403 3.36777 5.31133 4.27856 2.16507 1.7494 3.36777 2.73889 1.7494 1.52623 2.73889 2.32139 3.36777 2.73889 4.27856 3.521 2.73889 2.32139 3.521 2.96898 1.52623 1.43734 2.32139 2.0536 1.43734 1.44024 2.0536 1.88738 2.32139 2.0536 2.96898 2.56876 2.0536 1.88738 2.56876 2.27659 1.44024 1.48254 1.88738 1.78047 1.48254 1.52023 1.78047 1.70081 1.88738 1.78047 2.27659 2.05411 1.78047 1.70081 2.05411 1.87116 1.52023 1.54776 1.70081 1.63242 1.54776 1.56849 1.63242 1.56855 1.70081 1.63242 1.87116 1.71262 1.63242 1.56855 1.71262 1.56861 3.68352 7.59203 2.29635 7.14905 7.59203 12.24 7.14905 13.8223 2.29635 7.14905 -1.0036 5.12008 7.14905 13.8223 5.12008 15.9543 18.096 14.2179 16.0767 13.5044 14.2179 11.0431 13.5044 11.0758 16.0767 13.5044 14.4762 12.6051 13.5044 11.0758 12.6051 10.7321 11.0431 8.57774 11.0758 9.00012 8.57774 6.70825 9.00012 7.30951 11.0758 9.00012 10.7321 9.02779 9.00012 7.30951 9.02779 7.55908 6.70825 5.31133 7.30951 5.96765 5.31133 4.27856 5.96765 4.91729 7.30951 5.96765 7.55908 6.33237 5.96765 4.91729 6.33237 5.32412 4.27856 3.521 4.91729 4.10021 3.521 2.96898 4.10021 3.46633 4.91729 4.10021 5.32412 4.4981 4.10021 3.46633 4.4981 3.82034 2.96898 2.56876 3.46633 2.97648 2.56876 2.27659 2.97648 2.597 3.46633 2.97648 3.82034 3.2731 2.97648 2.597 3.2731 2.84121 2.27659 2.05411 2.597 2.29075 2.05411 1.87116 2.29075 2.01697 2.597 2.29075 2.84121 2.49698 2.29075 2.01697 2.49698 2.11316 1.87116 1.71262 2.01697 1.77685 1.71262 1.56861 1.77685 1.56867 2.01697 1.77685 2.11316 1.80493 1.77685 1.56867 1.80493 1.56874 15.9543 23.5656 21.4006 34.4879 23.5656 38.2675 34.4879 28.7683 21.4006 34.4879 19.0557 23.7124 34.4879 28.7683 23.7124 22.3576 17.1334 16.0538 16.0538 14.5905 16.0538 14.4762 14.5905 13.1722 16.0538 14.5905 14.4762 13.1722 14.5905 13.1722 13.1722 11.9628 14.4762 12.6051 13.1722 11.6855 12.6051 10.7321 11.6855 10.2024 13.1722 11.6855 11.9628 10.7612 11.6855 10.2024 10.7612 9.57485 10.7321 9.02779 10.2024 8.81015 9.02779 7.55908 8.81015 7.56189 10.2024 8.81015 9.57485 8.44243 8.81015 7.56189 8.44243 7.3979 7.55908 6.33237 7.56189 6.47644 6.33237 5.32412 6.47644 5.5484 7.