# vtk DataFile Version 3.0
#This file was generated by the deal.II library on 2020/5/27 at 9:04:50
ASCII
DATASET UNSTRUCTURED_GRID

POINTS 7132 double
0 0 0
0.0625 0 0
0 0.0625 0
0.0625 0.0625 0
0.0625 0 0
0.125 0 0
0.0625 0.0625 0
0.125 0.0625 0
0.125 0 0
0.1875 0 0
0.125 0.0625 0
0.1875 0.0625 0
0.1875 0 0
0.25 0 0
0.1875 0.0625 0
0.25 0.0625 0
0.875 0 0
0.9375 0 0
0.875 0.0625 0
0.9375 0.0625 0
0.9375 0 0
1 0 0
0.9375 0.0625 0
1 0.0625 0
0 0.0625 0
0.0625 0.0625 0
0 0.125 0
0.0625 0.125 0
0.0625 0.0625 0
0.125 0.0625 0
0.0625 0.125 0
0.125 0.125 0
0.125 0.0625 0
0.1875 0.0625 0
0.125 0.125 0
0.1875 0.125 0
0.9375 0.0625 0
1 0.0625 0
0.9375 0.125 0
1 0.125 0
0 0.125 0
0.0625 0.125 0
0 0.1875 0
0.0625 0.1875 0
0.0625 0.125 0
0.125 0.125 0
0.0625 0.1875 0
0.125 0.1875 0
0.125 0.125 0
0.1875 0.125 0
0.125 0.1875 0
0.1875 0.1875 0
0.9375 0.125 0
1 0.125 0
0.9375 0.1875 0
1 0.1875 0
0 0.1875 0
0.0625 0.1875 0
0 0.25 0
0.0625 0.25 0
0.9375 0.1875 0
1 0.1875 0
0.9375 0.25 0
1 0.25 0
0.875 0.25 0
0.9375 0.25 0
0.875 0.3125 0
0.9375 0.3125 0
0.9375 0.25 0
1 0.25 0
0.9375 0.3125 0
1 0.3125 0
0.9375 0.3125 0
1 0.3125 0
0.9375 0.375 0
1 0.375 0
0.9375 0.375 0
1 0.375 0
0.9375 0.4375 0
1 0.4375 0
0.9375 0.5 0
1 0.5 0
0.9375 0.5625 0
1 0.5625 0
0.875 0.5625 0
0.9375 0.5625 0
0.875 0.625 0
0.9375 0.625 0
0.9375 0.5625 0
1 0.5625 0
0.9375 0.625 0
1 0.625 0
0.8125 0.625 0
0.875 0.625 0
0.8125 0.6875 0
0.875 0.6875 0
0.875 0.625 0
0.9375 0.625 0
0.875 0.6875 0
0.9375 0.6875 0
0.9375 0.625 0
1 0.625 0
0.9375 0.6875 0
1 0.6875 0
0.75 0.6875 0
0.8125 0.6875 0
0.75 0.75 0
0.8125 0.75 0
0.8125 0.6875 0
0.875 0.6875 0
0.8125 0.75 0
0.875 0.75 0
0.875 0.6875 0
0.9375 0.6875 0
0.875 0.75 0
0.9375 0.75 0
0.9375 0.6875 0
1 0.6875 0
0.9375 0.75 0
1 0.75 0
0.6875 0.75 0
0.75 0.75 0
0.6875 0.8125 0
0.75 0.8125 0
0.75 0.75 0
0.8125 0.75 0
0.75 0.8125 0
0.8125 0.8125 0
0.8125 0.75 0
0.875 0.75 0
0.8125 0.8125 0
0.875 0.8125 0
0.875 0.75 0
0.9375 0.75 0
0.875 0.8125 0
0.9375 0.8125 0
0.9375 0.75 0
1 0.75 0
0.9375 0.8125 0
1 0.8125 0
0.625 0.8125 0
0.6875 0.8125 0
0.625 0.875 0
0.6875 0.875 0
0.6875 0.8125 0
0.75 0.8125 0
0.6875 0.875 0
0.75 0.875 0
0.75 0.8125 0
0.8125 0.8125 0
0.75 0.875 0
0.8125 0.875 0
0.8125 0.8125 0
0.875 0.8125 0
0.8125 0.875 0
0.875 0.875 0
0.875 0.8125 0
0.9375 0.8125 0
0.875 0.875 0
0.9375 0.875 0
0.9375 0.8125 0
1 0.8125 0
0.9375 0.875 0
1 0.875 0
0 0.875 0
0.0625 0.875 0
0 0.9375 0
0.0625 0.9375 0
0.25 0.875 0
0.3125 0.875 0
0.25 0.9375 0
0.3125 0.9375 0
0.5625 0.875 0
0.625 0.875 0
0.5625 0.9375 0
0.625 0.9375 0
0.625 0.875 0
0.6875 0.875 0
0.625 0.9375 0
0.6875 0.9375 0
0.6875 0.875 0
0.75 0.875 0
0.6875 0.9375 0
0.75 0.9375 0
0.75 0.875 0
0.8125 0.875 0
0.75 0.9375 0
0.8125 0.9375 0
0.8125 0.875 0
0.875 0.875 0
0.8125 0.9375 0
0.875 0.9375 0
0.875 0.875 0
0.9375 0.875 0
0.875 0.9375 0
0.9375 0.9375 0
0.9375 0.875 0
1 0.875 0
0.9375 0.9375 0
1 0.9375 0
0 0.9375 0
0.0625 0.9375 0
0 1 0
0.0625 1 0
0.0625 0.9375 0
0.125 0.9375 0
0.0625 1 0
0.125 1 0
0.125 0.9375 0
0.1875 0.9375 0
0.125 1 0
0.1875 1 0
0.1875 0.9375 0
0.25 0.9375 0
0.1875 1 0
0.25 1 0
0.25 0.9375 0
0.3125 0.9375 0
0.25 1 0
0.3125 1 0
0.3125 0.9375 0
0.375 0.9375 0
0.3125 1 0
0.375 1 0
0.375 0.9375 0
0.4375 0.9375 0
0.375 1 0
0.4375 1 0
0.5 0.9375 0
0.5625 0.9375 0
0.5 1 0
0.5625 1 0
0.5625 0.9375 0
0.625 0.9375 0
0.5625 1 0
0.625 1 0
0.625 0.9375 0
0.6875 0.9375 0
0.625 1 0
0.6875 1 0
0.6875 0.9375 0
0.75 0.9375 0
0.6875 1 0
0.75 1 0
0.75 0.9375 0
0.8125 0.9375 0
0.75 1 0
0.8125 1 0
0.8125 0.9375 0
0.875 0.9375 0
0.8125 1 0
0.875 1 0
0.875 0.9375 0
0.9375 0.9375 0
0.875 1 0
0.9375 1 0
0.9375 0.9375 0
1 0.9375 0
0.9375 1 0
1 1 0
0.375 0 0
0.40625 0 0
0.375 0.03125 0
0.40625 0.03125 0
0.40625 0 0
0.4375 0 0
0.40625 0.03125 0
0.4375 0.03125 0
0.375 0.03125 0
0.40625 0.03125 0
0.375 0.0625 0
0.40625 0.0625 0
0.40625 0.03125 0
0.4375 0.03125 0
0.40625 0.0625 0
0.4375 0.0625 0
0.4375 0 0
0.46875 0 0
0.4375 0.03125 0
0.46875 0.03125 0
0.46875 0 0
0.5 0 0
0.46875 0.03125 0
0.5 0.03125 0
0.4375 0.03125 0
0.46875 0.03125 0
0.4375 0.0625 0
0.46875 0.0625 0
0.46875 0.03125 0
0.5 0.03125 0
0.46875 0.0625 0
0.5 0.0625 0
0.5 0 0
0.53125 0 0
0.5 0.03125 0
0.53125 0.03125 0
0.5 0.03125 0
0.53125 0.03125 0
0.5 0.0625 0
0.53125 0.0625 0
0.625 0.03125 0
0.65625 0.03125 0
0.625 0.0625 0
0.65625 0.0625 0
0.71875 0 0
0.75 0 0
0.71875 0.03125 0
0.75 0.03125 0
0.71875 0.03125 0
0.75 0.03125 0
0.71875 0.0625 0
0.75 0.0625 0
0.75 0 0
0.78125 0 0
0.75 0.03125 0
0.78125 0.03125 0
0.78125 0 0
0.8125 0 0
0.78125 0.03125 0
0.8125 0.03125 0
0.75 0.03125 0
0.78125 0.03125 0
0.75 0.0625 0
0.78125 0.0625 0
0.78125 0.03125 0
0.8125 0.03125 0
0.78125 0.0625 0
0.8125 0.0625 0
0.375 0.0625 0
0.40625 0.0625 0
0.375 0.09375 0
0.40625 0.09375 0
0.40625 0.0625 0
0.4375 0.0625 0
0.40625 0.09375 0
0.4375 0.09375 0
0.375 0.09375 0
0.40625 0.09375 0
0.375 0.125 0
0.40625 0.125 0
0.40625 0.09375 0
0.4375 0.09375 0
0.40625 0.125 0
0.4375 0.125 0
0.4375 0.0625 0
0.46875 0.0625 0
0.4375 0.09375 0
0.46875 0.09375 0
0.46875 0.0625 0
0.5 0.0625 0
0.46875 0.09375 0
0.5 0.09375 0
0.4375 0.09375 0
0.46875 0.09375 0
0.4375 0.125 0
0.46875 0.125 0
0.46875 0.09375 0
0.5 0.09375 0
0.46875 0.125 0
0.5 0.125 0
0.625 0.0625 0
0.65625 0.0625 0
0.625 0.09375 0
0.65625 0.09375 0
0.6875 0.0625 0
0.71875 0.0625 0
0.6875 0.09375 0
0.71875 0.09375 0
0.71875 0.0625 0
0.75 0.0625 0
0.71875 0.09375 0
0.75 0.09375 0
0.71875 0.09375 0
0.75 0.09375 0
0.71875 0.125 0
0.75 0.125 0
0.75 0.0625 0
0.78125 0.0625 0
0.75 0.09375 0
0.78125 0.09375 0
0.78125 0.0625 0
0.8125 0.0625 0
0.78125 0.09375 0
0.8125 0.09375 0
0.75 0.09375 0
0.78125 0.09375 0
0.75 0.125 0
0.78125 0.125 0
0.78125 0.09375 0
0.8125 0.09375 0
0.78125 0.125 0
0.8125 0.125 0
0.4375 0.125 0
0.46875 0.125 0
0.4375 0.15625 0
0.46875 0.15625 0
0.71875 0.125 0
0.75 0.125 0
0.71875 0.15625 0
0.75 0.15625 0
0.71875 0.15625 0
0.75 0.15625 0
0.71875 0.1875 0
0.75 0.1875 0
0.75 0.125 0
0.78125 0.125 0
0.75 0.15625 0
0.78125 0.15625 0
0.78125 0.125 0
0.8125 0.125 0
0.78125 0.15625 0
0.8125 0.15625 0
0.75 0.15625 0
0.78125 0.15625 0
0.75 0.1875 0
0.78125 0.1875 0
0.78125 0.15625 0
0.8125 0.15625 0
0.78125 0.1875 0
0.8125 0.1875 0
0.8125 0.125 0
0.84375 0.125 0
0.8125 0.15625 0
0.84375 0.15625 0
0.84375 0.125 0
0.875 0.125 0
0.84375 0.15625 0
0.875 0.15625 0
0.8125 0.15625 0
0.84375 0.15625 0
0.8125 0.1875 0
0.84375 0.1875 0
0.84375 0.15625 0
0.875 0.15625 0
0.84375 0.1875 0
0.875 0.1875 0
0.71875 0.1875 0
0.75 0.1875 0
0.71875 0.21875 0
0.75 0.21875 0
0.71875 0.21875 0
0.75 0.21875 0
0.71875 0.25 0
0.75 0.25 0
0.75 0.1875 0
0.78125 0.1875 0
0.75 0.21875 0
0.78125 0.21875 0
0.78125 0.1875 0
0.8125 0.1875 0
0.78125 0.21875 0
0.8125 0.21875 0
0.75 0.21875 0
0.78125 0.21875 0
0.75 0.25 0
0.78125 0.25 0
0.78125 0.21875 0
0.8125 0.21875 0
0.78125 0.25 0
0.8125 0.25 0
0.71875 0.25 0
0.75 0.25 0
0.71875 0.28125 0
0.75 0.28125 0
0.71875 0.28125 0
0.75 0.28125 0
0.71875 0.3125 0
0.75 0.3125 0
0 0.375 0
0.03125 0.375 0
0 0.40625 0
0.03125 0.40625 0
0.03125 0.375 0
0.0625 0.375 0
0.03125 0.40625 0
0.0625 0.40625 0
0 0.40625 0
0.03125 0.40625 0
0 0.4375 0
0.03125 0.4375 0
0.03125 0.40625 0
0.0625 0.40625 0
0.03125 0.4375 0
0.0625 0.4375 0
0.0625 0.375 0
0.09375 0.375 0
0.0625 0.40625 0
0.09375 0.40625 0
0.09375 0.375 0
0.125 0.375 0
0.09375 0.40625 0
0.125 0.40625 0
0.0625 0.40625 0
0.09375 0.40625 0
0.0625 0.4375 0
0.09375 0.4375 0
0.09375 0.40625 0
0.125 0.40625 0
0.09375 0.4375 0
0.125 0.4375 0
0 0.4375 0
0.03125 0.4375 0
0 0.46875 0
0.03125 0.46875 0
0.03125 0.4375 0
0.0625 0.4375 0
0.03125 0.46875 0
0.0625 0.46875 0
0 0.46875 0
0.03125 0.46875 0
0 0.5 0
0.03125 0.5 0
0.03125 0.46875 0
0.0625 0.46875 0
0.03125 0.5 0
0.0625 0.5 0
0.0625 0.4375 0
0.09375 0.4375 0
0.0625 0.46875 0
0.09375 0.46875 0
0.09375 0.4375 0
0.125 0.4375 0
0.09375 0.46875 0
0.125 0.46875 0
0.0625 0.46875 0
0.09375 0.46875 0
0.0625 0.5 0
0.09375 0.5 0
0.09375 0.46875 0
0.125 0.46875 0
0.09375 0.5 0
0.125 0.5 0
0.125 0.4375 0
0.15625 0.4375 0
0.125 0.46875 0
0.15625 0.46875 0
0.46875 0.46875 0
0.5 0.46875 0
0.46875 0.5 0
0.5 0.5 0
0.5 0.46875 0
0.53125 0.46875 0
0.5 0.5 0
0.53125 0.5 0
0.53125 0.46875 0
0.5625 0.46875 0
0.53125 0.5 0
0.5625 0.5 0
0 0.5 0
0.03125 0.5 0
0 0.53125 0
0.03125 0.53125 0
0.03125 0.5 0
0.0625 0.5 0
0.03125 0.53125 0
0.0625 0.53125 0
0.46875 0.5 0
0.5 0.5 0
0.46875 0.53125 0
0.5 0.53125 0
0.46875 0.53125 0
0.5 0.53125 0
0.46875 0.5625 0
0.5 0.5625 0
0.03125 0.625 0
0.0625 0.625 0
0.03125 0.65625 0
0.0625 0.65625 0
0.0625 0.625 0
0.09375 0.625 0
0.0625 0.65625 0
0.09375 0.65625 0
0 0.71875 0
0.03125 0.71875 0
0 0.75 0
0.03125 0.75 0
0.03125 0.71875 0
0.0625 0.71875 0
0.03125 0.75 0
0.0625 0.75 0
0.0625 0.6875 0
0.09375 0.6875 0
0.0625 0.71875 0
0.09375 0.71875 0
0.0625 0.71875 0
0.09375 0.71875 0
0.0625 0.75 0
0.09375 0.75 0
0.09375 0.71875 0
0.125 0.71875 0
0.09375 0.75 0
0.125 0.75 0
0.125 0.71875 0
0.15625 0.71875 0
0.125 0.75 0
0.15625 0.75 0
0.15625 0.71875 0
0.1875 0.71875 0
0.15625 0.75 0
0.1875 0.75 0
0.1875 0.71875 0
0.21875 0.71875 0
0.1875 0.75 0
0.21875 0.75 0
0.21875 0.71875 0
0.25 0.71875 0
0.21875 0.75 0
0.25 0.75 0
0.25 0.71875 0
0.28125 0.71875 0
0.25 0.75 0
0.28125 0.75 0
0.28125 0.71875 0
0.3125 0.71875 0
0.28125 0.75 0
0.3125 0.75 0
0 0.75 0
0.03125 0.75 0
0 0.78125 0
0.03125 0.78125 0
0.03125 0.75 0
0.0625 0.75 0
0.03125 0.78125 0
0.0625 0.78125 0
0 0.78125 0
0.03125 0.78125 0
0 0.8125 0
0.03125 0.8125 0
0.03125 0.78125 0
0.0625 0.78125 0
0.03125 0.8125 0
0.0625 0.8125 0
0.0625 0.75 0
0.09375 0.75 0
0.0625 0.78125 0
0.09375 0.78125 0
0.09375 0.75 0
0.125 0.75 0
0.09375 0.78125 0
0.125 0.78125 0
0.0625 0.78125 0
0.09375 0.78125 0
0.0625 0.8125 0
0.09375 0.8125 0
0.09375 0.78125 0
0.125 0.78125 0
0.09375 0.8125 0
0.125 0.8125 0
0.125 0.75 0
0.15625 0.75 0
0.125 0.78125 0
0.15625 0.78125 0
0.15625 0.75 0
0.1875 0.75 0
0.15625 0.78125 0
0.1875 0.78125 0
0.125 0.78125 0
0.15625 0.78125 0
0.125 0.8125 0
0.15625 0.8125 0
0.15625 0.78125 0
0.1875 0.78125 0
0.15625 0.8125 0
[...]
POINT_DATA 7132
SCALARS solution double 1
LOOKUP_TABLE default
-1.56921 -1.56906 -1.56906 -1.09305 -1.56906 -1.56887 -1.09305 -0.601755 -1.56887 -1.56861 -0.601755 0.0585995 -1.56861 -1.56827 0.0585995 0.755411 1.56638 1.56733 2.17376 1.87462 1.56733 1.56795 1.87462 1.56799 -1.56906 -1.09305 -1.56887 -0.601755 -1.09305 -0.601755 -0.601755 0.409596 -0.601755 0.0585995 0.409596 1.8645 1.87462 1.56799 2.22535 1.56805 -1.56887 -0.601755 -1.56861 0.0585995 -0.601755 0.409596 0.0585995 1.8645 0.409596 1.8645 1.8645 3.73722 2.22535 1.56805 2.51816 1.56814 -1.56861 0.0585995 -1.56827 0.755411 2.51816 1.56814 2.81039 1.56825 4.31045 2.81039 5.25676 3.2643 2.81039 1.56825 3.2643 1.56836 3.2643 1.56836 3.72929 1.56849 3.72929 1.56849 4.01591 1.56861 4.08119 1.56874 3.69328 1.56886 6.45462 3.69328 5.46782 3.32237 3.69328 1.56886 3.32237 1.56897 8.29207 5.46782 6.69176 4.67058 5.46782 3.32237 4.67058 3.07461 3.32237 1.56897 3.07461 1.56908 9.35081 6.69176 7.133 5.40726 6.69176 4.67058 5.40726 4.06209 4.67058 3.07461 4.06209 2.79853 3.07461 1.56908 2.79853 1.56918 9.35081 7.133 6.69176 5.40726 7.133 5.40726 5.40726 4.4069 5.40726 4.06209 4.4069 3.44357 4.06209 2.79853 3.44357 2.50068 2.79853 1.56918 2.50068 1.56928 8.29207 6.69176 5.46782 4.67058 6.69176 5.40726 4.67058 4.06209 5.40726 4.4069 4.06209 3.44357 4.4069 3.44357 3.44357 2.81778 3.44357 2.50068 2.81778 2.19233 2.50068 1.56928 2.19233 1.56937 1.56638 2.17376 1.56733 1.87462 4.31045 5.25676 2.81039 3.2643 6.45462 5.46782 3.69328 3.32237 5.46782 4.67058 3.32237 3.07461 4.67058 4.06209 3.07461 2.79853 4.06209 3.44357 2.79853 2.50068 3.44357 2.81778 2.50068 2.19233 2.81778 2.19233 2.19233 1.88099 2.19233 1.56937 1.88099 1.56945 1.56733 1.87462 1.56795 1.56799 1.87462 2.22535 1.56799 1.56805 2.22535 2.51816 1.56805 1.56814 2.51816 2.81039 1.56814 1.56825 2.81039 3.2643 1.56825 1.56836 3.2643 3.72929 1.56836 1.56849 3.72929 4.01591 1.56849 1.56861 4.08119 3.69328 1.56874 1.56886 3.69328 3.32237 1.56886 1.56897 3.32237 3.07461 1.56897 1.56908 3.07461 2.79853 1.56908 1.56918 2.79853 2.50068 1.56918 1.56928 2.50068 2.19233 1.56928 1.56937 2.19233 1.88099 1.56937 1.56945 1.88099 1.56945 1.56945 1.56952 -1.56712 -1.56665 -0.225914 -0.276613 -1.56665 -1.56603 -0.276613 -0.372474 -0.225914 -0.276613 1.154 1.05904 -0.276613 -0.372474 1.05904 0.871915 -1.56603 -1.5652 -0.372474 -0.52122 -1.5652 -1.56403 -0.52122 -0.734958 -0.372474 -0.52122 0.871915 0.589938 -0.52122 -0.734958 0.589938 0.166018 -1.56403 -1.56222 -0.734958 -0.983306 -0.734958 -0.983306 0.166018 -0.352333 -3.91017 0.117033 -2.69687 -0.767636 1.55659 1.56095 1.93063 1.92363 1.93063 1.92363 2.18519 2.28331 1.56095 1.56326 1.92363 1.93475 1.56326 1.5647 1.93475 1.93412 1.92363 1.93475 2.28331 2.32008 1.93475 1.93412 2.32008 2.31569 1.154 1.05904 2.61425 2.48963 1.05904 0.871915 2.48963 2.2129 2.61425 2.48963 4.20257 4.08075 2.48963 2.2129 4.08075 3.72504 0.871915 0.589938 2.2129 1.78426 0.589938 0.166018 1.78426 1.20728 2.2129 1.78426 3.72504 3.18092 1.78426 1.20728 3.18092 2.39318 -2.69687 -0.767636 -1.38131 3.18007 1.88903 2.18519 2.0517 2.48584 2.18519 2.28331 2.48584 2.69322 2.48584 2.69322 2.96848 3.20344 2.28331 2.32008 2.69322 2.74455 2.32008 2.31569 2.74455 2.72457 2.69322 2.74455 3.20344 3.23382 2.74455 2.72457 3.23382 3.17441 3.72504 3.18092 5.62773 5.0726 2.96848 3.20344 3.65433 3.83157 3.65433 3.83157 4.5458 4.58959 3.20344 3.23382 3.83157 3.80495 3.23382 3.17441 3.80495 3.67885 3.83157 3.80495 4.58959 4.46805 3.80495 3.67885 4.46805 4.24852 3.17441 3.05869 3.67885 3.48607 3.05869 2.90739 3.48607 3.25005 3.67885 3.48607 4.24852 3.95571 3.48607 3.25005 3.95571 3.61104 4.5458 4.58959 5.64203 5.47671 5.64203 5.47671 6.92487 6.47638 4.58959 4.46805 5.47671 5.22407 4.46805 4.24852 5.22407 4.89012 5.47671 5.22407 6.47638 6.06033 5.22407 4.89012 6.06033 5.60044 6.92487 6.47638 8.28988 7.55979 8.28988 7.55979 9.75973 8.69676 -1.56712 -0.225914 -1.56665 -0.276613 -0.225914 1.154 -0.276613 1.05904 -1.56665 -0.276613 -1.56603 -0.372474 -0.276613 1.05904 -0.372474 0.871915 1.154 2.61425 1.05904 2.48963 2.61425 4.20257 2.48963 4.08075 1.05904 2.48963 0.871915 2.2129 2.48963 4.08075 2.2129 3.72504 -1.56603 -0.372474 -1.5652 -0.52122 -0.372474 0.871915 -0.52122 0.589938 -1.5652 -0.52122 -1.56403 -0.734958 -0.52122 0.589938 -0.734958 0.166018 0.871915 2.2129 0.589938 1.78426 2.2129 3.72504 1.78426 3.18092 0.589938 1.78426 0.166018 1.20728 1.78426 3.18092 1.20728 2.39318 3.72504 5.62773 3.18092 5.0726 53.3681 42.1401 42.1401 36.0618 42.1401 34.9774 36.0618 31.5289 34.9774 29.8387 31.5289 27.5479 -1.56403 -0.734958 -1.56222 -0.983306 -0.734958 0.166018 -0.983306 -0.352333 42.1401 36.0618 34.9774 31.5289 34.9774 31.5289 29.8387 27.5479 -3.91017 -2.69687 0.117033 -0.767636 -2.69687 -1.38131 -0.767636 3.18007 1.55659 1.93063 1.56095 1.92363 1.93063 2.18519 1.92363 2.28331 1.88903 2.0517 2.18519 2.48584 2.18519 2.48584 2.28331 2.69322 2.48584 2.96848 2.69322 3.20344 2.96848 3.65433 3.20344 3.83157 3.65433 4.5458 3.83157 4.58959 4.5458 5.64203 4.58959 5.47671 5.64203 6.92487 5.47671 6.47638 6.92487 8.28988 6.47638 7.55979 8.28988 9.75973 7.55979 8.69676 1.56095 1.92363 1.56326 1.93475 1.92363 2.28331 1.93475 2.32008 1.56326 1.93475 1.5647 1.93412 1.93475 2.32008 1.93412 2.31569 2.28331 2.69322 2.32008 2.74455 2.69322 3.20344 2.74455 3.23382 2.32008 2.74455 2.31569 2.72457 2.74455 3.23382 2.72457 3.17441 3.20344 3.83157 3.23382 3.80495 3.83157 4.58959 3.80495 4.46805 3.23382 3.80495 3.17441 3.67885 3.80495 4.46805 3.67885 4.24852 4.58959 5.47671 4.46805 5.22407 5.47671 6.47638 5.22407 6.06033 4.46805 5.22407 4.24852 4.89012 5.22407 6.06033 4.89012 5.60044 3.17441 3.67885 3.05869 3.48607 3.67885 4.24852 3.48607 3.95571 3.05869 3.48607 2.90739 3.25005 3.48607 3.95571 3.25005 3.61104 -1.56827 -1.56806 -0.301601 -0.267329 -1.56806 -1.5678 -0.267329 -0.23 -0.301601 -0.267329 0.755411 1.03777 -0.267329 -0.23 1.03777 1.12681 -1.5678 -1.5675 -0.23 -0.213363 -1.5675 -1.56712 -0.213363 -0.225914 -0.23 -0.213363 1.12681 1.16995 -0.213363 -0.225914 1.16995 1.154 0.0585995 1.64146 1.9125 2.1559 1.64146 0.755411 2.1559 2.26093 1.9125 2.1559 1.8645 2.98534 2.1559 2.26093 2.98534 3.38914 0.755411 1.03777 2.26093 2.37847 1.03777 1.12681 2.37847 2.51975 2.26093 2.37847 3.38914 3.69909 2.37847 2.51975 3.69909 3.96259 1.12681 1.16995 2.51975 2.61233 1.16995 1.154 2.61233 2.61425 2.51975 2.61233 3.96259 4.14607 2.61233 2.61425 4.14607 4.20257 2.31569 2.28039 2.72457 2.66237 2.28039 2.17376 2.66237 2.58616 2.72457 2.66237 3.17441 3.05869 2.66237 2.58616 3.05869 2.90739 1.8645 2.98534 3.65735 4.01442 2.98534 3.38914 4.01442 4.55089 3.65735 4.01442 3.73722 4.95772 4.01442 4.55089 4.95772 5.74796 3.38914 3.69909 4.55089 5.05218 3.69909 3.96259 5.05218 5.48432 4.55089 5.05218 5.74796 6.4709 5.05218 5.48432 6.4709 7.11391 3.96259 4.14607 5.48432 5.80675 4.14607 4.20257 5.80675 5.9682 5.48432 5.80675 7.11391 7.62943 5.80675 5.9682 7.62943 7.95484 4.20257 4.08075 5.9682 5.92174 4.08075 3.72504 5.92174 5.62773 5.9682 5.92174 7.95484 8.02492 5.92174 5.62773 8.02492 7.96576 0.0585995 1.9125 1.64146 2.1559 1.9125 1.8645 2.1559 2.98534 1.64146 2.1559 0.755411 2.26093 2.1559 2.98534 2.26093 3.38914 1.8645 3.65735 2.98534 4.01442 3.65735 3.73722 4.01442 4.95772 2.98534 4.01442 3.38914 4.55089 4.01442 4.95772 4.55089 5.74796 3.73722 4.95772 4.95772 5.9712 4.95772 5.74796 5.9712 6.98833 4.95772 5.9712 5.74796 6.98833 5.9712 6.98833 6.98833 8.26093 5.74796 6.4709 6.98833 7.96596 6.4709 7.11391 7.96596 8.86935 6.98833 7.96596 8.26093 9.53252 7.96596 8.86935 9.53252 10.7557 7.11391 7.62943 8.86935 9.6442 7.62943 7.95484 9.6442 10.2373 8.86935 9.6442 10.7557 11.8703 9.6442 10.2373 11.8703 12.8343 7.95484 8.02492 10.2373 10.7022 8.02492 7.96576 10.7022 10.8528 10.2373 10.7022 12.8343 14.0145 4.24852 3.95571 4.89012 4.47918 3.95571 3.61104 4.47918 3.98128 4.89012 4.47918 5.60044 5.0956 4.47918 3.98128 5.0956 4.31045 -1.56827 -0.301601 -1.56806 -0.267329 -0.301601 0.755411 -0.267329 1.03777 -1.56806 -0.267329 -1.5678 -0.23 -0.267329 1.03777 -0.23 1.12681 0.755411 2.26093 1.03777 2.37847 2.26093 3.38914 2.37847 3.69909 1.03777 2.37847 1.12681 2.51975 2.37847 3.69909 2.51975 3.96259 3.38914 4.55089 3.69909 5.05218 4.55089 5.74796 5.05218 6.4709 3.69909 5.05218 3.96259 5.48432 5.05218 6.4709 5.48432 7.11391 5.74796 6.98833 6.4709 7.96596 6.98833 8.26093 7.96596 9.53252 6.4709 7.96596 7.11391 8.86935 7.96596 9.53252 8.86935 10.7557 8.26093 9.53252 9.53252 11.148 9.53252 10.7557 11.148 12.7747 9.53252 11.148 10.7557 12.7747 11.148 12.7747 12.7747 14.948 10.7557 11.8703 12.7747 14.3743 11.8703 12.8343 14.3743 16.2468 12.7747 14.3743 14.948 17.7219 14.3743 16.2468 17.7219 21.0949 12.8343 14.0145 16.2468 18.1201 6.47638 6.06033 7.55979 6.94639 6.06033 5.60044 6.94639 6.33943 7.55979 6.94639 8.69676 7.83577 6.94639 6.33943 7.83577 7.04323 5.60044 5.0956 6.33943 5.77539 5.0956 4.31045 5.77539 5.45192 6.33943 5.77539 7.04323 6.28991 5.77539 5.45192 6.28991 5.25676 -1.5678 -0.23 -1.5675 -0.213363 -0.23 1.12681 -0.213363 1.16995 -1.5675 -0.213363 -1.56712 -0.225914 -0.213363 1.16995 -0.225914 1.154 1.12681 2.51975 1.16995 2.61233 2.51975 3.96259 2.61233 4.14607 1.16995 2.61233 1.154 2.61425 2.61233 4.14607 2.61425 4.20257 3.96259 5.48432 4.14607 5.80675 5.48432 7.11391 5.80675 7.62943 4.14607 5.80675 4.20257 5.9682 5.80675 7.62943 5.9682 7.95484 7.11391 8.86935 7.62943 9.6442 8.86935 10.7557 9.6442 11.8703 7.62943 9.6442 7.95484 10.2373 9.6442 11.8703 10.2373 12.8343 10.7557 12.7747 11.8703 14.3743 12.7747 14.948 14.3743 17.7219 11.8703 14.3743 12.8343 16.2468 14.3743 17.7219 16.2468 21.0949 14.948 17.7219 17.7219 22.1869 11.1979 9.75973 12.8022 11.0362 9.75973 8.69676 11.0362 9.76003 12.8022 11.0362 14.094 12.1292 11.0362 9.76003 12.1292 10.6616 8.69676 7.83577 9.76003 8.667 7.83577 7.04323 8.667 7.69054 9.76003 8.667 10.6616 9.3883 8.667 7.69054 9.3883 8.25616 7.04323 6.28991 7.69054 6.79298 6.28991 5.25676 6.79298 5.96586 7.69054 6.79298 8.25616 7.23385 6.79298 5.96586 7.23385 6.30334 5.25676 5.04824 5.96586 5.25929 5.04824 3.2643 5.25929 4.77359 5.96586 5.25929 6.30334 5.40849 5.25929 4.77359 5.40849 3.72929 1.5647 1.56567 1.93412 1.9213 1.56567 1.56638 1.9213 1.90826 1.93412 1.9213 2.31569 2.28039 1.9213 1.90826 2.28039 2.17376 4.20257 5.9682 4.08075 5.92174 5.9682 7.95484 5.92174 8.02492 4.08075 5.92174 3.72504 5.62773 5.92174 8.02492 5.62773 7.96576 7.95484 10.2373 8.02492 10.7022 10.2373 12.8343 10.7022 14.0145 8.02492 10.7022 7.96576 10.8528 12.8343 16.2468 14.0145 18.1201 16.9214 14.094 17.8989 14.9887 17.8989 14.9887 18.4478 15.6697 14.094 12.1292 14.9887 13.0216 12.1292 10.6616 13.0216 11.3871 14.9887 13.0216 15.6697 13.6352 13.0216 11.3871 13.6352 11.9064 10.6616 9.3883 11.3871 9.97092 9.3883 8.25616 9.97092 8.71404 11.3871 9.97092 11.9064 10.3971 9.97092 8.71404 10.3971 9.05205 8.25616 7.23385 8.71404 7.57902 7.23385 6.30334 7.57902 6.54274 8.71404 7.57902 9.05205 7.8276 7.57902 6.54274 7.8276 6.68426 6.30334 5.40849 6.54274 5.61197 5.40849 3.72929 5.61197 5.06639 6.54274 5.61197 6.68426 5.55992 5.61197 5.06639 5.55992 4.01591 2.17376 2.36702 2.58616 2.50232 2.36702 1.87462 2.50232 2.39877 2.58616 2.50232 2.90739 2.71259 2.50232 2.39877 2.71259 2.22535 25.9235 21.8763 25.1596 21.4173 29.8387 25.1596 27.5479 23.9958 25.1596 21.4173 23.9958 20.9181 21.8763 18.4478 21.4173 18.5209 18.4478 15.6697 18.5209 16.0365 21.4173 18.5209 20.9181 18.2886 18.5209 16.0365 18.2886 16.0084 15.6697 13.6352 16.0365 13.9745 13.6352 11.9064 13.9745 12.2104 16.0365 13.9745 16.0084 14.0321 13.9745 12.2104 14.0321 12.3036 11.9064 10.3971 12.2104 10.6608 10.3971 9.05205 10.6608 9.27029 12.2104 10.6608 12.3036 10.7671 10.6608 9.27029 10.7671 9.37528 9.05205 7.8276 9.27029 7.99314 7.8276 6.68426 7.99314 6.78261 9.27029 7.99314 9.37528 8.0871 7.99314 6.78261 8.0871 6.87218 6.68426 5.55992 6.78261 5.55675 5.55992 4.01591 5.55675 4.20556 6.78261 5.55675 6.87218 5.68934 5.55675 4.20556 5.68934 4.08119 4.01591 2.86402 4.20556 2.87756 2.86402 1.56861 2.87756 1.56867 4.20556 2.87756 4.08119 2.8754 2.87756 1.56867 2.8754 1.56874 36.0618 31.5289 31.5289 28.4646 31.5289 27.5479 28.4646 25.4596 31.5289 28.4646 27.5479 25.4596 28.4646 25.4596 25.4596 23.2429 27.5479 23.9958 25.4596 22.6273 23.9958 20.9181 22.6273 20.0449 25.4596 22.6273 23.2429 21.0243 22.6273 20.0449 21.0243 18.9026 20.9181 18.2886 20.0449 17.7337 18.2886 16.0084 17.7337 15.6754 20.0449 17.7337 18.9026 16.9276 17.7337 15.6754 16.9276 15.1148 16.0084 14.0321 15.6754 13.8438 14.0321 12.3036 13.8438 12.2066 15.6754 13.8438 15.1148 13.4606 13.8438 12.2066 13.4606 11.9502 12.3036 10.7671 12.2066 10.7292 10.7671 9.37528 10.7292 9.37737 12.2066 10.7292 11.9502 10.5637 10.7292 9.37737 10.5637 9.28814 9.37528 8.0871 9.37737 8.10618 8.0871 6.87218 8.10618 6.88562 9.37737 8.10618 9.28814 8.09067 8.10618 6.88562 8.09067 6.45462 6.87218 5.68934 6.88562 5.85352 5.68934 4.08119 5.85352 5.24815 6.88562 5.85352 6.45462 5.75432 5.85352 5.24815 5.75432 3.69328 29.8387 27.5479 25.1596 23.9958 25.9235 25.1596 21.8763 21.4173 25.1596 23.9958 21.4173 20.9181 27.5479 25.4596 23.9958 22.6273 25.4596 23.2429 22.6273 21.0243 23.9958 22.6273 20.9181 20.0449 22.6273 21.0243 20.0449 18.9026 23.2429 21.0243 21.0243 19.318 21.0243 18.9026 19.318 17.6085 21.0243 19.318 18.9026 17.6085 19.318 17.6085 17.6085 16.2518 18.9026 16.9276 17.6085 15.9565 16.9276 15.1148 15.9565 14.3938 17.6085 15.9565 16.2518 14.8932 15.9565 14.3938 14.8932 13.5692 15.1148 13.4606 14.3938 12.9323 13.4606 11.9502 12.9323 11.5703 14.3938 12.9323 13.5692 12.3005 12.9323 11.5703 12.3005 11.1032 11.9502 10.5637 11.5703 10.284 10.5637 9.28814 10.284 9.06786 11.5703 10.284 11.1032 9.95177 10.284 9.06786 9.95177 8.29207 16.9214 17.8989 14.094 14.9887 17.8989 18.4478 14.9887 15.6697 21.8763 21.4173 18.4478 18.5209 21.4173 20.9181 18.5209 18.2886 18.4478 18.5209 15.6697 16.0365 18.5209 18.2886 16.0365 16.0084 20.9181 20.0449 18.2886 17.7337 20.0449 18.9026 17.7337 16.9276 18.2886 17.7337 16.0084 15.6754 17.7337 16.9276 15.6754 15.1148 18.9026 17.6085 16.9276 15.9565 17.6085 16.2518 15.9565 14.8932 16.9276 15.9565 15.1148 14.3938 15.9565 14.8932 14.3938 13.5692 16.2518 14.8932 14.8932 13.7919 14.8932 13.5692 13.7919 12.688 14.8932 13.7919 13.5692 12.688 13.7919 12.688 12.688 11.7903 13.5692 12.3005 12.688 11.5897 12.3005 11.1032 11.5897 10.5287 12.688 11.5897 11.7903 10.8601 11.5897 10.5287 10.8601 9.35081 11.1979 12.8022 9.75973 11.0362 12.8022 14.094 11.0362 12.1292 9.75973 11.0362 8.69676 9.76003 11.0362 12.1292 9.76003 10.6616 14.094 14.9887 12.1292 13.0216 14.9887 15.6697 13.0216 13.6352 12.1292 13.0216 10.6616 11.3871 13.0216 13.6352 11.3871 11.9064 15.6697 16.0365 13.6352 13.9745 16.0365 16.0084 13.9745 14.0321 13.6352 13.9745 11.9064 12.2104 13.9745 14.0321 12.2104 12.3036 16.0084 15.6754 14.0321 13.8438 15.6754 15.1148 13.8438 13.4606 14.0321 13.8438 12.3036 12.2066 13.8438 13.4606 12.2066 11.9502 15.1148 14.3938 13.4606 12.9323 14.3938 13.5692 12.9323 12.3005 13.4606 12.9323 11.9502 11.5703 12.9323 12.3005 11.5703 11.1032 13.5692 12.688 12.3005 11.5897 12.688 11.7903 11.5897 10.8601 12.3005 11.5897 11.1032 10.5287 11.5897 10.8601 10.5287 9.35081 6.47638 7.55979 6.06033 6.94639 7.55979 8.69676 6.94639 7.83577 6.06033 6.94639 5.60044 6.33943 6.94639 7.83577 6.33943 7.04323 8.69676 9.76003 7.83577 8.667 9.76003 10.6616 8.667 9.3883 7.83577 8.667 7.04323 7.69054 8.667 9.3883 7.69054 8.25616 10.6616 11.3871 9.3883 9.97092 11.3871 11.9064 9.97092 10.3971 9.3883 9.97092 8.25616 8.71404 9.97092 10.3971 8.71404 9.05205 11.9064 12.2104 10.3971 10.6608 12.2104 12.3036 10.6608 10.7671 10.3971 10.6608 9.05205 9.27029 10.6608 10.7671 9.27029 9.37528 12.3036 12.2066 10.7671 10.7292 12.2066 11.9502 10.7292 10.5637 10.7671 10.7292 9.37528 9.37737 10.7292 10.5637 9.37737 9.28814 11.9502 11.5703 10.5637 10.284 11.5703 11.1032 10.284 9.95177 10.5637 10.284 9.28814 9.06786 10.284 9.95177 9.06786 8.29207 2.31569 2.72457 2.28039 2.66237 2.72457 3.17441 2.66237 3.05869 2.28039 2.66237 2.17376 2.58616 2.66237 3.05869 2.58616 2.90739 4.24852 4.89012 3.95571 4.47918 4.89012 5.60044 4.47918 5.0956 3.95571 4.47918 3.61104 3.98128 4.47918 5.0956 3.98128 4.31045 5.60044 6.33943 5.0956 5.77539 6.33943 7.04323 5.77539 6.28991 5.0956 5.77539 4.31045 5.45192 5.77539 6.28991 5.45192 5.25676 7.04323 7.69054 6.28991 6.79298 7.69054 8.25616 6.79298 7.23385 6.28991 6.79298 5.25676 5.96586 6.79298 7.23385 5.96586 6.30334 8.25616 8.71404 7.23385 7.57902 8.71404 9.05205 7.57902 7.8276 7.23385 7.57902 6.30334 6.54274 7.57902 7.8276 6.54274 6.68426 9.05205 9.27029 7.8276 7.99314 9.27029 9.37528 7.99314 8.0871 7.8276 7.99314 6.68426 6.78261 7.99314 8.0871 6.78261 6.87218 9.37528 9.37737 8.0871 8.10618 9.37737 9.28814 8.10618 8.09067 8.0871 8.10618 6.87218 6.88562 8.10618 8.09067 6.88562 6.45462 5.25676 5.96586 5.04824 5.25929 5.96586 6.30334 5.25929 5.40849 5.04824 5.25929 3.2643 4.77359 5.25929 5.40849 4.77359 3.72929 6.30334 6.54274 5.40849 5.61197 6.54274 6.68426 5.61197 5.55992 5.40849 5.61197 3.72929 5.06639 5.61197 5.55992 5.06639 4.01591 6.68426 6.78261 5.55992 5.55675 6.78261 6.87218 5.55675 5.68934 5.55992 5.55675 4.01591 4.20556 5.55675 5.68934 4.20556 4.08119 6.87218 6.88562 5.68934 5.85352 6.88562 6.45462 5.85352 5.75432 5.68934 5.85352 4.08119 5.24815 5.85352 5.75432 5.24815 3.69328 2.90739 2.71259 3.25005 2.99245 2.71259 2.22535 2.99245 2.81608 3.25005 2.99245 3.61104 3.23436 2.99245 2.81608 3.23436 2.51816 3.61104 3.23436 3.98128 3.49859 3.23436 2.51816 3.49859 3.23357 3.98128 3.49859 4.31045 3.58384 3.49859 3.23357 3.58384 2.81039 4.01591 4.20556 2.86402 2.87756 4.20556 4.08119 2.87756 2.8754 2.86402 2.87756 1.56861 1.56867 2.87756 2.8754 1.56867 1.56874 9.28814 8.09067 9.06786 8.06282 8.09067 6.45462 8.06282 7.44198 9.06786 8.06282 8.29207 7.84082 8.06282 7.44198 7.84082 5.46782 11.1032 9.95177 10.5287 9.64505 9.95177 8.29207 9.64505 9.04261 10.5287 9.64505 9.35081 9.27455 9.64505 9.04261 9.27455 6.69176 11.7903 10.8601 10.8601 10.2322 10.8601 9.35081 10.2322 9.71868 10.8601 10.2322 9.35081 9.71868 10.2322 9.71868 9.71868 7.133 11.1032 10.5287 9.95177 9.64505 10.5287 9.35081 9.64505 9.27455 9.95177 9.64505 8.29207 9.04261 9.64505 9.27455 9.04261 6.69176 1.5647 1.93412 1.56567 1.9213 1.93412 2.31569 1.9213 2.28039 1.56567 1.9213 1.56638 1.90826 1.9213 2.28039 1.90826 2.17376 9.28814 9.06786 8.09067 8.06282 9.06786 8.29207 8.06282 7.84082 8.09067 8.06282 6.45462 7.44198 8.06282 7.84082 7.44198 5.46782 2.17376 2.58616 2.36702 2.50232 2.58616 2.90739 2.50232 2.71259 2.36702 2.50232 1.87462 2.39877 2.50232 2.71259 2.39877 2.22535 2.90739 3.25005 2.71259 2.99245 3.25005 3.61104 2.99245 3.23436 2.71259 2.99245 2.22535 2.81608 2.99245 3.23436 2.81608 2.51816 3.61104 3.98128 3.23436 3.49859 3.98128 4.31045 3.49859 3.58384 3.23436 3.49859 2.51816 3.23357 3.49859 3.58384 3.23357 2.81039 3.75826 2.35403 4.74792 3.20489 2.35403 0.572832 3.20489 0.934805 4.74792 3.20489 5.96364 4.36794 3.20489 0.934805 4.36794 1.92734 8.47941 7.32905 10.0813 8.85143 7.32905 5.96364 8.85143 7.36744 10.0813 8.85143 11.9289 10.6457 8.85143 7.36744 10.6457 8.98706 5.96364 4.36794 7.36744 5.677 4.36794 1.92734 5.677 3.43999 7.36744 5.677 8.98706 6.99488 5.677 3.43999 6.99488 4.92076 0.572832 -1.89048 0.934805 -3.43256 -3.43256 -8.71778 -3.93727 -7.76385 -5.10282 -6.1473 -8.71778 -5.58448 -8.71778 -5.58448 -7.76385 -0.789672 -3.93727 -7.76385 -0.127224 3.12486 4.49615 5.10357 7.01808 7.20272 2.77151 4.40609 5.10357 5.79273 4.40609 5.06376 5.79273 6.15082 5.10357 5.79273 7.20272 7.30711 5.79273 6.15082 7.30711 7.38186 11.9289 10.6457 14.0382 12.8157 10.6457 8.98706 12.8157 11.2553 14.0382 12.8157 16.3781 15.2039 12.8157 11.2553 15.2039 14.0908 8.98706 6.99488 11.2553 9.08851 6.99488 4.92076 9.08851 4.60975 16.3781 15.2039 19.2047 18.012 15.2039 14.0908 18.012 17.1037 4.92076 4.41194 4.60975 8.90669 4.60975 8.90669 8.35805 8.73533 8.90669 8.77907 8.73533 10.8321 7.01808 7.20272 8.94034 8.92714 8.77907 8.94034 10.8321 10.9028 8.94034 8.92714 10.9028 10.6804 10.8321 10.9028