# vtk DataFile Version 3.0
#This file was generated by the deal.II library on 2020/5/27 at 9:04:37
ASCII
DATASET UNSTRUCTURED_GRID

POINTS 16384 double
0 0 0
0.015625 0 0
0 0.015625 0
0.015625 0.015625 0
0.015625 0 0
0.03125 0 0
0.015625 0.015625 0
0.03125 0.015625 0
0 0.015625 0
0.015625 0.015625 0
0 0.03125 0
0.015625 0.03125 0
0.015625 0.015625 0
0.03125 0.015625 0
0.015625 0.03125 0
0.03125 0.03125 0
0.03125 0 0
0.046875 0 0
0.03125 0.015625 0
0.046875 0.015625 0
0.046875 0 0
0.0625 0 0
0.046875 0.015625 0
0.0625 0.015625 0
0.03125 0.015625 0
0.046875 0.015625 0
0.03125 0.03125 0
0.046875 0.03125 0
0.046875 0.015625 0
0.0625 0.015625 0
0.046875 0.03125 0
0.0625 0.03125 0
0 0.03125 0
0.015625 0.03125 0
0 0.046875 0
0.015625 0.046875 0
0.015625 0.03125 0
0.03125 0.03125 0
0.015625 0.046875 0
0.03125 0.046875 0
0 0.046875 0
0.015625 0.046875 0
0 0.0625 0
0.015625 0.0625 0
0.015625 0.046875 0
0.03125 0.046875 0
0.015625 0.0625 0
0.03125 0.0625 0
0.03125 0.03125 0
0.046875 0.03125 0
0.03125 0.046875 0
0.046875 0.046875 0
0.046875 0.03125 0
0.0625 0.03125 0
0.046875 0.046875 0
0.0625 0.046875 0
0.03125 0.046875 0
0.046875 0.046875 0
0.03125 0.0625 0
0.046875 0.0625 0
0.046875 0.046875 0
0.0625 0.046875 0
0.046875 0.0625 0
0.0625 0.0625 0
0.0625 0 0
0.078125 0 0
0.0625 0.015625 0
0.078125 0.015625 0
0.078125 0 0
0.09375 0 0
0.078125 0.015625 0
0.09375 0.015625 0
0.0625 0.015625 0
0.078125 0.015625 0
0.0625 0.03125 0
0.078125 0.03125 0
0.078125 0.015625 0
0.09375 0.015625 0
0.078125 0.03125 0
0.09375 0.03125 0
0.09375 0 0
0.109375 0 0
0.09375 0.015625 0
0.109375 0.015625 0
0.109375 0 0
0.125 0 0
0.109375 0.015625 0
0.125 0.015625 0
0.09375 0.015625 0
0.109375 0.015625 0
0.09375 0.03125 0
0.109375 0.03125 0
0.109375 0.015625 0
0.125 0.015625 0
0.109375 0.03125 0
0.125 0.03125 0
0.0625 0.03125 0
0.078125 0.03125 0
0.0625 0.046875 0
0.078125 0.046875 0
0.078125 0.03125 0
0.09375 0.03125 0
0.078125 0.046875 0
0.09375 0.046875 0
0.0625 0.046875 0
0.078125 0.046875 0
0.0625 0.0625 0
0.078125 0.0625 0
0.078125 0.046875 0
0.09375 0.046875 0
0.078125 0.0625 0
0.09375 0.0625 0
0.09375 0.03125 0
0.109375 0.03125 0
0.09375 0.046875 0
0.109375 0.046875 0
0.109375 0.03125 0
0.125 0.03125 0
0.109375 0.046875 0
0.125 0.046875 0
0.09375 0.046875 0
0.109375 0.046875 0
0.09375 0.0625 0
0.109375 0.0625 0
0.109375 0.046875 0
0.125 0.046875 0
0.109375 0.0625 0
0.125 0.0625 0
0.125 0 0
0.140625 0 0
0.125 0.015625 0
0.140625 0.015625 0
0.140625 0 0
0.15625 0 0
0.140625 0.015625 0
0.15625 0.015625 0
0.125 0.015625 0
0.140625 0.015625 0
0.125 0.03125 0
0.140625 0.03125 0
0.140625 0.015625 0
0.15625 0.015625 0
0.140625 0.03125 0
0.15625 0.03125 0
0.15625 0 0
0.171875 0 0
0.15625 0.015625 0
0.171875 0.015625 0
0.171875 0 0
0.1875 0 0
0.171875 0.015625 0
0.1875 0.015625 0
0.15625 0.015625 0
0.171875 0.015625 0
0.15625 0.03125 0
0.171875 0.03125 0
0.171875 0.015625 0
0.1875 0.015625 0
0.171875 0.03125 0
0.1875 0.03125 0
0.125 0.03125 0
0.140625 0.03125 0
0.125 0.046875 0
0.140625 0.046875 0
0.140625 0.03125 0
0.15625 0.03125 0
0.140625 0.046875 0
0.15625 0.046875 0
0.125 0.046875 0
0.140625 0.046875 0
0.125 0.0625 0
0.140625 0.0625 0
0.140625 0.046875 0
0.15625 0.046875 0
0.140625 0.0625 0
0.15625 0.0625 0
0.15625 0.03125 0
0.171875 0.03125 0
0.15625 0.046875 0
0.171875 0.046875 0
0.171875 0.03125 0
0.1875 0.03125 0
0.171875 0.046875 0
0.1875 0.046875 0
0.15625 0.046875 0
0.171875 0.046875 0
0.15625 0.0625 0
0.171875 0.0625 0
0.171875 0.046875 0
0.1875 0.046875 0
0.171875 0.0625 0
0.1875 0.0625 0
0.1875 0 0
0.203125 0 0
0.1875 0.015625 0
0.203125 0.015625 0
0.203125 0 0
0.21875 0 0
0.203125 0.015625 0
0.21875 0.015625 0
0.1875 0.015625 0
0.203125 0.015625 0
0.1875 0.03125 0
0.203125 0.03125 0
0.203125 0.015625 0
0.21875 0.015625 0
0.203125 0.03125 0
0.21875 0.03125 0
0.21875 0 0
0.234375 0 0
0.21875 0.015625 0
0.234375 0.015625 0
0.234375 0 0
0.25 0 0
0.234375 0.015625 0
0.25 0.015625 0
0.21875 0.015625 0
0.234375 0.015625 0
0.21875 0.03125 0
0.234375 0.03125 0
0.234375 0.015625 0
0.25 0.015625 0
0.234375 0.03125 0
0.25 0.03125 0
0.1875 0.03125 0
0.203125 0.03125 0
0.1875 0.046875 0
0.203125 0.046875 0
0.203125 0.03125 0
0.21875 0.03125 0
0.203125 0.046875 0
0.21875 0.046875 0
0.1875 0.046875 0
0.203125 0.046875 0
0.1875 0.0625 0
0.203125 0.0625 0
0.203125 0.046875 0
0.21875 0.046875 0
0.203125 0.0625 0
0.21875 0.0625 0
0.21875 0.03125 0
0.234375 0.03125 0
0.21875 0.046875 0
0.234375 0.046875 0
0.234375 0.03125 0
0.25 0.03125 0
0.234375 0.046875 0
0.25 0.046875 0
0.21875 0.046875 0
0.234375 0.046875 0
0.21875 0.0625 0
0.234375 0.0625 0
0.234375 0.046875 0
0.25 0.046875 0
0.234375 0.0625 0
0.25 0.0625 0
0.25 0 0
0.265625 0 0
0.25 0.015625 0
0.265625 0.015625 0
0.265625 0 0
0.28125 0 0
0.265625 0.015625 0
0.28125 0.015625 0
0.25 0.015625 0
0.265625 0.015625 0
0.25 0.03125 0
0.265625 0.03125 0
0.265625 0.015625 0
0.28125 0.015625 0
0.265625 0.03125 0
0.28125 0.03125 0
0.28125 0 0
0.296875 0 0
0.28125 0.015625 0
0.296875 0.015625 0
0.296875 0 0
0.3125 0 0
0.296875 0.015625 0
0.3125 0.015625 0
0.28125 0.015625 0
0.296875 0.015625 0
0.28125 0.03125 0
0.296875 0.03125 0
0.296875 0.015625 0
0.3125 0.015625 0
0.296875 0.03125 0
0.3125 0.03125 0
0.25 0.03125 0
0.265625 0.03125 0
0.25 0.046875 0
0.265625 0.046875 0
0.265625 0.03125 0
0.28125 0.03125 0
0.265625 0.046875 0
0.28125 0.046875 0
0.25 0.046875 0
0.265625 0.046875 0
0.25 0.0625 0
0.265625 0.0625 0
0.265625 0.046875 0
0.28125 0.046875 0
0.265625 0.0625 0
0.28125 0.0625 0
0.28125 0.03125 0
0.296875 0.03125 0
0.28125 0.046875 0
0.296875 0.046875 0
0.296875 0.03125 0
0.3125 0.03125 0
0.296875 0.046875 0
0.3125 0.046875 0
0.28125 0.046875 0
0.296875 0.046875 0
0.28125 0.0625 0
0.296875 0.0625 0
0.296875 0.046875 0
0.3125 0.046875 0
0.296875 0.0625 0
0.3125 0.0625 0
0.3125 0 0
0.328125 0 0
0.3125 0.015625 0
0.328125 0.015625 0
0.328125 0 0
0.34375 0 0
0.328125 0.015625 0
0.34375 0.015625 0
0.3125 0.015625 0
0.328125 0.015625 0
0.3125 0.03125 0
0.328125 0.03125 0
0.328125 0.015625 0
0.34375 0.015625 0
0.328125 0.03125 0
0.34375 0.03125 0
0.34375 0 0
0.359375 0 0
0.34375 0.015625 0
0.359375 0.015625 0
0.359375 0 0
0.375 0 0
0.359375 0.015625 0
0.375 0.015625 0
0.34375 0.015625 0
0.359375 0.015625 0
0.34375 0.03125 0
0.359375 0.03125 0
0.359375 0.015625 0
0.375 0.015625 0
0.359375 0.03125 0
0.375 0.03125 0
0.3125 0.03125 0
0.328125 0.03125 0
0.3125 0.046875 0
0.328125 0.046875 0
0.328125 0.03125 0
0.34375 0.03125 0
0.328125 0.046875 0
0.34375 0.046875 0
0.3125 0.046875 0
0.328125 0.046875 0
0.3125 0.0625 0
0.328125 0.0625 0
0.328125 0.046875 0
0.34375 0.046875 0
0.328125 0.0625 0
0.34375 0.0625 0
0.34375 0.03125 0
0.359375 0.03125 0
0.34375 0.046875 0
0.359375 0.046875 0
0.359375 0.03125 0
0.375 0.03125 0
0.359375 0.046875 0
0.375 0.046875 0
0.34375 0.046875 0
0.359375 0.046875 0
0.34375 0.0625 0
0.359375 0.0625 0
0.359375 0.046875 0
0.375 0.046875 0
0.359375 0.0625 0
0.375 0.0625 0
0.375 0 0
0.390625 0 0
0.375 0.015625 0
0.390625 0.015625 0
0.390625 0 0
0.40625 0 0
0.390625 0.015625 0
0.40625 0.015625 0
0.375 0.015625 0
0.390625 0.015625 0
0.375 0.03125 0
0.390625 0.03125 0
0.390625 0.015625 0
0.40625 0.015625 0
0.390625 0.03125 0
0.40625 0.03125 0
0.40625 0 0
0.421875 0 0
0.40625 0.015625 0
0.421875 0.015625 0
0.421875 0 0
0.4375 0 0
0.421875 0.015625 0
0.4375 0.015625 0
0.40625 0.015625 0
0.421875 0.015625 0
0.40625 0.03125 0
0.421875 0.03125 0
0.421875 0.015625 0
0.4375 0.015625 0
0.421875 0.03125 0
0.4375 0.03125 0
0.375 0.03125 0
0.390625 0.03125 0
0.375 0.046875 0
0.390625 0.046875 0
0.390625 0.03125 0
0.40625 0.03125 0
0.390625 0.046875 0
0.40625 0.046875 0
0.375 0.046875 0
0.390625 0.046875 0
0.375 0.0625 0
0.390625 0.0625 0
0.390625 0.046875 0
0.40625 0.046875 0
0.390625 0.0625 0
0.40625 0.0625 0
0.40625 0.03125 0
0.421875 0.03125 0
0.40625 0.046875 0
0.421875 0.046875 0
0.421875 0.03125 0
0.4375 0.03125 0
0.421875 0.046875 0
0.4375 0.046875 0
0.40625 0.046875 0
0.421875 0.046875 0
0.40625 0.0625 0
0.421875 0.0625 0
0.421875 0.046875 0
0.4375 0.046875 0
0.421875 0.0625 0
0.4375 0.0625 0
0.4375 0 0
0.453125 0 0
0.4375 0.015625 0
0.453125 0.015625 0
0.453125 0 0
0.46875 0 0
0.453125 0.015625 0
0.46875 0.015625 0
0.4375 0.015625 0
0.453125 0.015625 0
0.4375 0.03125 0
0.453125 0.03125 0
0.453125 0.015625 0
0.46875 0.015625 0
0.453125 0.03125 0
0.46875 0.03125 0
0.46875 0 0
0.484375 0 0
0.46875 0.015625 0
0.484375 0.015625 0
0.484375 0 0
0.5 0 0
0.484375 0.015625 0
0.5 0.015625 0
0.46875 0.015625 0
0.484375 0.015625 0
0.46875 0.03125 0
0.484375 0.03125 0
0.484375 0.015625 0
0.5 0.015625 0
0.484375 0.03125 0
0.5 0.03125 0
0.4375 0.03125 0
0.453125 0.03125 0
0.4375 0.046875 0
0.453125 0.046875 0
0.453125 0.03125 0
0.46875 0.03125 0
0.453125 0.046875 0
0.46875 0.046875 0
0.4375 0.046875 0
0.453125 0.046875 0
0.4375 0.0625 0
0.453125 0.0625 0
0.453125 0.046875 0
0.46875 0.046875 0
0.453125 0.0625 0
0.46875 0.0625 0
0.46875 0.03125 0
0.484375 0.03125 0
0.46875 0.046875 0
0.484375 0.046875 0
0.484375 0.03125 0
0.5 0.03125 0
0.484375 0.046875 0
0.5 0.046875 0
0.46875 0.046875 0
0.484375 0.046875 0
0.46875 0.0625 0
0.484375 0.0625 0
0.484375 0.046875 0
0.5 0.046875 0
0.484375 0.0625 0
0.5 0.0625 0
0.5 0 0
0.515625 0 0
0.5 0.015625 0
0.515625 0.015625 0
0.515625 0 0
0.53125 0 0
0.515625 0.015625 0
0.53125 0.015625 0
0.5 0.015625 0
0.515625 0.015625 0
0.5 0.03125 0
0.515625 0.03125 0
0.515625 0.015625 0
0.53125 0.015625 0
0.515625 0.03125 0
0.53125 0.03125 0
0.53125 0 0
0.546875 0 0
0.53125 0.015625 0
0.546875 0.015625 0
0.546875 0 0
0.5625 0 0
0.546875 0.015625 0
0.5625 0.015625 0
0.53125 0.015625 0
0.546875 0.015625 0
0.53125 0.03125 0
0.546875 0.03125 0
0.546875 0.015625 0
0.5625 0.015625 0
0.546875 0.03125 0
0.5625 0.03125 0
0.5 0.03125 0
0.515625 0.03125 0
0.5 0.046875 0
0.515625 0.046875 0
0.515625 0.03125 0
0.53125 0.03125 0
0.515625 0.046875 0
0.53125 0.046875 0
0.5 0.046875 0
0.515625 0.046875 0
0.5 0.0625 0
0.515625 0.0625 0
0.515625 0.046875 0
0.53125 0.046875 0
0.515625 0.0625 0
0.53125 0.0625 0
[...]
POINT_DATA 16384
SCALARS solution double 1
LOOKUP_TABLE default
-1.56921 -1.56918 -1.56918 -1.52831 -1.56918 -1.56914 -1.52831 -1.48745 -1.56918 -1.52831 -1.56914 -1.48745 -1.52831 -1.48745 -1.48745 -1.40575 -1.56914 -1.5691 -1.48745 -1.44658 -1.5691 -1.56906 -1.44658 -1.40573 -1.48745 -1.44658 -1.40575 -1.32404 -1.44658 -1.40573 -1.32404 -1.24235 -1.56914 -1.48745 -1.5691 -1.44658 -1.48745 -1.40575 -1.44658 -1.32404 -1.5691 -1.44658 -1.56906 -1.40573 -1.44658 -1.32404 -1.40573 -1.24235 -1.40575 -1.32404 -1.32404 -1.20148 -1.32404 -1.24235 -1.20148 -1.07891 -1.32404 -1.20148 -1.24235 -1.07891 -1.20148 -1.07891 -1.07891 -0.915417 -1.56906 -1.56902 -1.40573 -1.36491 -1.56902 -1.56897 -1.36491 -1.32417 -1.40573 -1.36491 -1.24235 -1.16073 -1.36491 -1.32417 -1.16073 -1.07923 -1.56897 -1.56892 -1.32417 -1.28357 -1.56892 -1.56887 -1.28357 -1.24317 -1.32417 -1.28357 -1.07923 -0.997991 -1.28357 -1.24317 -0.997991 -0.917155 -1.24235 -1.16073 -1.07891 -0.956401 -1.16073 -1.07923 -0.956401 -0.834047 -1.07891 -0.956401 -0.915417 -0.751922 -0.956401 -0.834047 -0.751922 -0.588547 -1.07923 -0.997991 -0.834047 -0.712009 -0.997991 -0.917155 -0.712009 -0.590517 -0.834047 -0.712009 -0.588547 -0.425486 -0.712009 -0.590517 -0.425486 -0.263029 -1.56887 -1.56881 -1.24317 -1.20311 -1.56881 -1.56875 -1.20311 -1.1635 -1.24317 -1.20311 -0.917155 -0.83694 -1.20311 -1.1635 -0.83694 -0.75762 -1.56875 -1.56868 -1.1635 -1.12453 -1.56868 -1.56861 -1.12453 -1.0864 -1.1635 -1.12453 -0.75762 -0.679534 -1.12453 -1.0864 -0.679534 -0.603098 -0.917155 -0.83694 -0.590517 -0.469882 -0.83694 -0.75762 -0.469882 -0.350506 -0.590517 -0.469882 -0.263029 -0.101572 -0.469882 -0.350506 -0.101572 0.0583623 -0.75762 -0.679534 -0.350506 -0.232892 -0.679534 -0.603098 -0.232892 -0.117657 -0.350506 -0.232892 0.0583623 0.216118 -0.232892 -0.117657 0.216118 0.370885 -1.56861 -1.56853 -1.0864 -1.04936 -1.56853 -1.56845 -1.04936 -1.0137 -1.0864 -1.04936 -0.603098 -0.528804 -1.04936 -1.0137 -0.528804 -0.457227 -1.56845 -1.56836 -1.0137 -0.979737 -1.56836 -1.56827 -0.979737 -0.947857 -1.0137 -0.979737 -0.457227 -0.389027 -0.979737 -0.947857 -0.389027 -0.324947 -0.603098 -0.528804 -0.117657 -0.0055352 -0.528804 -0.457227 -0.0055352 0.102615 -0.117657 -0.0055352 0.370885 0.521696 -0.0055352 0.102615 0.521696 0.667408 -0.457227 -0.389027 0.102615 0.205803 -0.389027 -0.324947 0.205803 0.30291 0.102615 0.205803 0.667408 0.806705 0.205803 0.30291 0.806705 0.938089 -1.56827 -1.56817 -0.947857 -0.918465 -1.56817 -1.56806 -0.918465 -0.892012 -0.947857 -0.918465 -0.324947 -0.265815 -0.918465 -0.892012 -0.265815 -0.212535 -1.56806 -1.56794 -0.892012 -0.86898 -1.56794 -1.5678 -0.86898 -0.849878 -0.892012 -0.86898 -0.212535 -0.16608 -0.86898 -0.849878 -0.16608 -0.127478 -0.324947 -0.265815 0.30291 0.39269 -0.265815 -0.212535 0.39269 0.473773 0.30291 0.39269 0.938089 1.05989 0.39269 0.473773 1.05989 1.17026 -0.212535 -0.16608 0.473773 0.544684 -0.16608 -0.127478 0.544684 0.603857 0.473773 0.544684 1.17026 1.26719 0.544684 0.603857 1.26719 1.34857 -1.5678 -1.56766 -0.849878 -0.83523 -1.56766 -1.5675 -0.83523 -0.825568 -0.849878 -0.83523 -0.127478 -0.0977948 -0.83523 -0.825568 -0.0977948 -0.0781067 -1.5675 -1.56732 -0.825568 -0.821408 -1.56732 -1.56712 -0.821408 -0.823234 -0.825568 -0.821408 -0.0781067 -0.0694716 -0.821408 -0.823234 -0.0694716 -0.072887 -0.127478 -0.0977948 0.603857 0.649662 -0.0977948 -0.0781067 0.649662 0.680443 0.603857 0.649662 1.34857 1.41217 0.649662 0.680443 1.41217 1.45569 -0.0781067 -0.0694716 0.680443 0.694562 -0.0694716 -0.072887 0.694562 0.69046 0.680443 0.694562 1.45569 1.47687 0.694562 0.69046 1.47687 1.47351 -1.56712 -1.5669 -0.823234 -0.831475 -1.5669 -1.56665 -0.831475 -0.846467 -0.823234 -0.831475 -0.072887 -0.0892404 -0.831475 -0.846467 -0.0892404 -0.119249 -1.56665 -1.56636 -0.846467 -0.868424 -1.56636 -1.56603 -0.868424 -0.897391 -0.846467 -0.868424 -0.119249 -0.163386 -0.868424 -0.897391 -0.163386 -0.2218 -0.072887 -0.0892404 0.69046 0.666728 -0.0892404 -0.119249 0.666728 0.622199 0.69046 0.666728 1.47351 1.44359 0.666728 0.622199 1.44359 1.38539 -0.119249 -0.163386 0.622199 0.556054 -0.163386 -0.2218 0.556054 0.467949 0.622199 0.556054 1.38539 1.29761 0.556054 0.467949 1.29761 1.17958 -1.56603 -1.56565 -0.897391 -0.933198 -1.56565 -1.5652 -0.933198 -0.975397 -0.897391 -0.933198 -0.2218 -0.294214 -0.933198 -0.975397 -0.294214 -0.37982 -1.5652 -1.56467 -0.975397 -1.02319 -1.56467 -1.56403 -1.02319 -1.07529 -0.975397 -1.02319 -0.37982 -0.477143 -1.02319 -1.07529 -0.477143 -0.583855 -0.2218 -0.294214 0.467949 0.358155 -0.294214 -0.37982 0.358155 0.227717 0.467949 0.358155 1.17958 1.03141 0.358155 0.227717 1.03141 0.854214 -0.37982 -0.477143 0.227717 0.0786133 -0.477143 -0.583855 0.0786133 -0.0860596 0.227717 0.0786133 0.854214 0.650302 0.0786133 -0.0860596 0.650302 0.423336 -1.56403 -1.56323 -1.07529 -1.12972 -1.56323 -1.56222 -1.12972 -1.18333 -1.07529 -1.12972 -0.583855 -0.696465 -1.12972 -1.18333 -0.696465 -0.80967 -1.56222 -1.5609 -1.18333 -1.2306 -1.5609 -1.5591 -1.2306 -1.26091 -1.18333 -1.2306 -0.80967 -0.914934 -1.2306 -1.26091 -0.914934 -0.997312 -0.583855 -0.696465 -0.0860596 -0.261862 -0.696465 -0.80967 -0.261862 -0.442618 -0.0860596 -0.261862 0.423336 0.178364 -0.261862 -0.442618 0.178364 -0.0782895 -0.80967 -0.914934 -0.442618 -0.619584 -0.914934 -0.997312 -0.619584 -0.779693 -0.442618 -0.619584 -0.0782895 -0.339296 -0.619584 -0.779693 -0.339296 -0.596514 -1.5591 -1.55649 -1.26091 -1.25095 -1.55649 -1.55239 -1.25095 -1.1405 -1.26091 -1.25095 -0.997312 -1.02862 -1.25095 -1.1405 -1.02862 -0.9538 -1.55239 -1.54498 -1.1405 -0.739974 -1.54498 -1.52763 -0.739974 0.684485 -1.1405 -0.739974 -0.9538 -0.67004 -0.739974 0.684485 -0.67004 -0.0331507 -0.997312 -1.02862 -0.779693 -0.902752 -1.02862 -0.9538 -0.902752 -0.962156 -0.779693 -0.902752 -0.596514 -0.840259 -0.902752 -0.962156 -0.840259 -1.05495 -0.9538 -0.67004 -0.962156 -0.96445 -0.67004 -0.0331507 -0.96445 -1.2504 -0.962156 -0.96445 -1.05495 -1.20201 -0.96445 -1.2504 -1.20201 -1.19354 -1.52763 -1.43941 0.684485 6.4034 -1.43941 1.44671 6.4034 8.25323 0.684485 6.4034 -0.0331507 1.25322 6.4034 8.25323 1.25322 4.22578 1.44671 1.52846 8.25323 3.58698 1.52846 1.54529 3.58698 2.35494 8.25323 3.58698 4.22578 3.28714 3.58698 2.35494 3.28714 2.53775 -0.0331507 1.25322 -1.2504 -5.05708 1.25322 4.22578 -5.05708 1.79304 -1.2504 -5.05708 -1.19354 1.30992 -5.05708 1.79304 1.30992 1.80002 4.22578 3.28714 1.79304 2.40978 3.28714 2.53775 2.40978 2.33276 1.79304 2.40978 1.80002 2.00805 2.40978 2.33276 2.00805 2.1197 1.54529 1.55254 2.35494 1.9612 1.55254 1.55659 1.9612 1.81568 2.35494 1.9612 2.53775 2.16905 1.9612 1.81568 2.16905 2.00043 1.55659 1.55916 1.81568 1.75695 1.55916 1.56095 1.75695 1.7321 1.81568 1.75695 2.00043 1.92459 1.75695 1.7321 1.92459 1.89067 2.53775 2.16905 2.33276 2.1912 2.16905 2.00043 2.1912 2.10017 2.33276 2.1912 2.1197 2.14797 2.1912 2.10017 2.14797 2.15376 2.00043 1.92459 2.10017 2.05376 1.92459 1.89067 2.05376 2.03256 2.10017 2.05376 2.15376 2.15833 2.05376 2.03256 2.15833 2.16386 1.56095 1.56226 1.7321 1.72105 1.56226 1.56326 1.72105 1.71532 1.7321 1.72105 1.89067 1.87491 1.72105 1.71532 1.87491 1.86599 1.56326 1.56406 1.71532 1.71111 1.56406 1.5647 1.71111 1.70665 1.71532 1.71111 1.86599 1.85843 1.71111 1.70665 1.85843 1.84962 1.89067 1.87491 2.03256 2.02256 1.87491 1.86599 2.02256 2.01555 2.03256 2.02256 2.16386 2.16759 2.02256 2.01555 2.16759 2.16672 1.86599 1.85843 2.01555 2.00711 1.85843 1.84962 2.00711 1.99505 2.01555 2.00711 2.16672 2.15947 2.00711 1.99505 2.15947 2.14503 1.5647 1.56523 1.70665 1.70114 1.56523 1.56567 1.70114 1.69428 1.70665 1.70114 1.84962 1.83838 1.70114 1.69428 1.83838 1.82427 1.56567 1.56605 1.69428 1.68599 1.56605 1.56638 1.68599 1.67635 1.69428 1.68599 1.82427 1.80726 1.68599 1.67635 1.80726 1.78753 1.84962 1.83838 1.99505 1.97846 1.83838 1.82427 1.97846 1.95713 1.99505 1.97846 2.14503 2.12328 1.97846 1.95713 2.12328 2.09454 1.82427 1.80726 1.95713 1.93123 1.80726 1.78753 1.93123 1.90113 1.95713 1.93123 2.09454 2.05936 1.93123 1.90113 2.05936 2.01843 1.56638 1.56666 1.67635 1.66547 1.56666 1.56691 1.66547 1.65351 1.67635 1.66547 1.78753 1.76534 1.66547 1.65351 1.76534 1.741 1.56691 1.56714 1.65351 1.64063 1.56714 1.56733 1.64063 1.62699 1.65351 1.64063 1.741 1.71486 1.64063 1.62699 1.71486 1.68722 1.78753 1.76534 1.90113 1.86731 1.76534 1.741 1.86731 1.83028 1.90113 1.86731 2.01843 1.97248 1.86731 1.83028 1.97248 1.92224 1.741 1.71486 1.83028 1.79055 1.71486 1.68722 1.79055 1.74861 1.83028 1.79055 1.92224 1.86843 1.79055 1.74861 1.86843 1.81171 1.56733 1.56751 1.62699 1.61275 1.56751 1.56767 1.61275 1.59807 1.62699 1.61275 1.68722 1.65842 1.61275 1.59807 1.65842 1.62875 1.56767 1.56782 1.59807 1.58309 1.56782 1.56795 1.58309 1.56796 1.59807 1.58309 1.62875 1.5985 1.58309 1.56796 1.5985 1.56796 1.68722 1.65842 1.74861 1.70494 1.65842 1.62875 1.70494 1.65999 1.74861 1.70494 1.81171 1.75272 1.70494 1.65999 1.75272 1.69206 1.62875 1.5985 1.65999 1.61419 1.5985 1.56796 1.61419 1.56798 1.65999 1.61419 1.69206 1.6303 1.61419 1.56798 1.6303 1.56799 -1.56906 -1.40573 -1.56902 -1.36491 -1.40573 -1.24235 -1.36491 -1.16073 -1.56902 -1.36491 -1.56897 -1.32417 -1.36491 -1.16073 -1.32417 -1.07923 -1.24235 -1.07891 -1.16073 -0.956401 -1.07891 -0.915417 -0.956401 -0.751922 -1.16073 -0.956401 -1.07923 -0.834047 -0.956401 -0.751922 -0.834047 -0.588547 -1.56897 -1.32417 -1.56892 -1.28357 -1.32417 -1.07923 -1.28357 -0.997991 -1.56892 -1.28357 -1.56887 -1.24317 -1.28357 -0.997991 -1.24317 -0.917155 -1.07923 -0.834047 -0.997991 -0.712009 -0.834047 -0.588547 -0.712009 -0.425486 -0.997991 -0.712009 -0.917155 -0.590517 -0.712009 -0.425486 -0.590517 -0.263029 -0.915417 -0.751922 -0.751922 -0.547329 -0.751922 -0.588547 -0.547329 -0.342739 -0.751922 -0.547329 -0.588547 -0.342739 -0.547329 -0.342739 -0.342739 -0.0967227 -0.588547 -0.425486 -0.342739 -0.138369 -0.425486 -0.263029 -0.138369 0.0654486 -0.342739 -0.138369 -0.0967227 0.149286 -0.138369 0.0654486 0.149286 0.394931 -0.588547 -0.342739 -0.425486 -0.138369 -0.342739 -0.0967227 -0.138369 0.149286 -0.425486 -0.138369 -0.263029 0.0654486 -0.138369 0.149286 0.0654486 0.394931 -0.0967227 0.149286 0.149286 0.437288 0.149286 0.394931 0.437288 0.725278 0.149286 0.437288 0.394931 0.725278 0.437288 0.725278 0.725278 1.05616 -0.263029 -0.101572 0.0654486 0.268245 -0.101572 0.0583623 0.268245 0.469394 0.0654486 0.268245 0.394931 0.639689 0.268245 0.469394 0.639689 0.88285 0.0583623 0.216118 0.469394 0.668099 0.216118 0.370885 0.668099 0.863368 0.469394 0.668099 0.88285 1.12349 0.668099 0.863368 1.12349 1.36046 0.394931 0.639689 0.725278 1.01271 0.639689 0.88285 1.01271 1.2988 0.725278 1.01271 1.05616 1.38703 1.01271 1.2988 1.38703 1.71707 0.88285 1.12349 1.2988 1.58253 1.12349 1.36046 1.58253 1.86259 1.2988 1.58253 1.71707 2.04519 1.58253 1.86259 2.04519 2.36996 0.370885 0.521696 0.863368 1.05401 0.521696 0.667408 1.05401 1.2386 0.863368 1.05401 1.36046 1.59234 1.05401 1.2386 1.59234 1.81745 0.667408 0.806705 1.2386 1.4155 0.806705 0.938089 1.4155 1.58284 1.2386 1.4155 1.81745 2.03384 1.4155 1.58284 2.03384 2.23924 1.36046 1.59234 1.86259 2.13739 1.59234 1.81745 2.13739 2.405 1.86259 2.13739 2.36996 2.68961 2.13739 2.405 2.68961 3.00197 1.81745 2.03384 2.405 2.66313 2.03384 2.23924 2.66313 2.90915 2.405 2.66313 3.00197 3.30447 2.66313 2.90915 3.30447 3.59411 0.938089 1.05989 1.58284 1.7385 1.05989 1.17026 1.7385 1.88016 1.58284 1.7385 2.23924 2.43111 1.7385 1.88016 2.43111 2.60661 1.17026 1.26719 1.88016 2.00527 1.26719 1.34857 2.00527 2.11109 1.88016 2.00527 2.60661 2.76261 2.00527 2.11109 2.76261 2.89577 2.23924 2.43111 2.90915 3.14006 2.43111 2.60661 3.14006 3.35251 2.90915 3.14006 3.59411 3.86744 3.14006 3.35251 3.86744 4.12057 2.60661 2.76261 3.35251 3.54279 2.76261 2.89577 3.54279 3.70685 3.35251 3.54279 4.12057 4.34915 3.54279 3.70685 4.34915 4.54846 1.34857 1.41217 2.11109 2.19477 1.41217 1.45569 2.19477 2.25333 2.11109 2.19477 2.89577 3.0025 2.19477 2.25333 3.0025 3.0791 1.45569 1.47687 2.25333 2.28378 1.47687 1.47351 2.28378 2.2832 2.25333 2.28378 3.0791 3.12178 2.28378 2.2832 3.12178 3.12676 2.89577 3.0025 3.70685 3.84039 3.0025 3.0791 3.84039 3.93884 3.70685 3.84039 4.54846 4.71335 3.84039 3.93884 4.71335 4.83837 3.0791 3.12178 3.93884 3.99753 3.12178 3.12676 3.99753 4.01172 3.93884 3.99753 4.83837 4.91784 3.99753 4.01172 4.91784 4.94591 1.47351 1.44359 2.2832 2.24885 1.44359 1.38539 2.24885 2.1783 2.2832 2.24885 3.12676 3.09044 2.24885 2.1783 3.09044 3.00951 1.38539 1.29761 2.1783 2.06962 1.29761 1.17958 2.06962 1.9216 2.1783 2.06962 3.00951 2.88119 2.06962 1.9216 2.88119 2.7035 3.12676 3.09044 4.01172 3.97676 3.09044 3.00951 3.97676 3.88828 4.01172 3.97676 4.94591 4.91674 3.97676 3.88828 4.91674 4.82465 3.00951 2.88119 3.88828 3.74239 2.88119 2.7035 3.74239 3.536 3.88828 3.74239 4.82465 4.66436 3.74239 3.536 4.66436 4.43129 1.17958 1.03141 1.9216 1.73399 1.03141 0.854214 1.73399 1.50777 1.9216 1.73399 2.7035 2.47552 1.73399 1.50777 2.47552 2.19785 0.854214 0.650302 1.50777 1.24543 0.650302 0.423336 1.24543 0.951158 1.50777 1.24543 2.19785 1.87295 1.24543 0.951158 1.87295 1.50555 2.7035 2.47552 3.536 3.26717 2.47552 2.19785 3.26717 2.93567 3.536 3.26717 4.43129 4.12199 3.26717 2.93567 4.12199 3.73475 2.19785 1.87295 2.93567 2.54355 1.87295 1.50555 2.54355 2.09594 2.93567 2.54355 3.73475 3.27047 2.54355 2.09594 3.27047 2.73392 0.423336 0.178364 0.951158 0.630724 0.178364 -0.0782895 0.630724 0.290925 0.951158 0.630724 1.50555 1.10271 0.630724 0.290925 1.10271 0.67317 -0.0782895 -0.339296 0.290925 -0.0619741 -0.339296 -0.596514 -0.0619741 -0.425031 0.290925 -0.0619741 0.67317 0.225028 -0.0619741 -0.425031 0.225028 -0.239854 1.50555 1.10271 2.09594 1.6017 1.10271 0.67317 1.6017 1.07363 2.09594 1.6017 2.73392 2.13542 1.6017 1.07363 2.13542 1.49295 0.67317 0.225028 1.07363 0.52691 0.225028 -0.239854 0.52691 -0.0269349 1.07363 0.52691 1.49295 0.834023 0.52691 -0.0269349 0.834023 0.194684 -0.596514 -0.840259 -0.425031 -0.802054 -0.840259 -1.05495 -0.802054 -1.20233 -0.425031 -0.802054 -0.239854 -0.736887 -0.802054 -1.20233 -0.736887 -1.31922 -1.05495 -1.20201 -1.20233 -1.60416 -1.20201 -1.19354 -1.60416 -1.62164 -1.20233 -1.60416 -1.31922 -2.14613 -1.60416 -1.62164 -2.14613 -4.18777 -0.239854 -0.736887 -0.0269349 -0.596242 -0.736887 -1.31922 -0.596242 -1.24221 -0.0269349 -0.596242 0.194684 -0.393291 -0.596242 -1.24221 -0.393291 -0.954292 -1.31922 -2.14613 -1.24221 -2.08834 -2.14613 -4.18777 -2.08834 -2.40045 -1.24221 -2.08834 -0.954292 -1.81974 -2.08834 -2.40045 -1.81974 -4.94885 -1.19354 1.30992 -1.62164 4.76547 1.30992 1.80002 4.76547 1.83562 -1.62164 4.76547 -4.18777 -1.7736 4.76547 1.83562 -1.7736 0.908144 1.80002 2.00805 1.83562 1.79702 2.00805 2.1197 1.79702 1.98131 1.83562 1.79702 0.908144 1.55777 1.79702 1.98131 1.55777 1.91061 -4.18777 -1.7736 -2.40045 -0.341073 -1.7736 0.908144 -0.341073 0.804154 -2.40045 -0.341073 -4.94885 0.825807 -0.341073 0.804154 0.825807 1.325 0.908144 1.55777 0.804154 1.53383 1.55777 1.91061 1.53383 1.95554 0.804154 1.53383 1.325 1.77701 1.53383 1.95554 1.77701 2.13383 2.1197 2.14797 1.98131 2.11793 2.14797 2.15376 2.11793 2.20487 1.98131 2.11793 1.91061 2.13622 2.11793 2.20487 2.13622 2.28435 2.15376 2.15833 2.20487 2.26081 2.15833 2.16386 2.26081 2.29667 2.20487 2.26081 2.28435 2.38184 2.26081 2.29667 2.38184 2.44411 1.91061 2.13622 1.95554 2.22757 2.13622 2.28435 2.22757 2.41183 1.95554 2.22757 2.13383 2.40091 2.22757 2.41183 2.40091 2.59632 2.28435 2.38184 2.41183 2.53654 2.38184 2.44411 2.53654 2.61723 2.41183 2.53654 2.59632 2.7339 2.53654 2.61723 2.7339 2.824 2.16386 2.16759 2.29667 2.31717 2.16759 2.16672 2.31717 2.32427 2.29667 2.31717 2.44411 2.47981 2.31717 2.32427 2.47981 2.49399 2.16672 2.15947 2.32427 2.31901 2.15947 2.14503 2.31901 2.3023 2.32427 2.31901 2.49399 2.48992 2.31901 2.3023 2.48992 2.47002 2.44411 2.47981 2.61723 2.66348 2.47981 2.49399 2.66348 2.6817 2.61723 2.66348 2.824 2.87471 2.66348 2.6817 2.87471 2.89253 2.49399 2.48992 2.6817 2.6765 2.48992 2.47002 2.6765 2.65144 2.6817 2.6765 2.89253 2.88271 2.6765 2.65144 2.88271 2.84964 2.14503 2.12328 2.3023 2.27507 2.12328 2.09454 2.27507 2.23835 2.3023 2.27507 2.47002 2.43629 2.27507 2.23835 2.43629 2.39053 2.09454 2.05936 2.23835 2.1932 2.05936 2.01843 2.1932 2.14071 2.23835 2.1932 2.39053 2.33435 2.1932 2.14071 2.33435 2.26926 2.47002 2.43629 2.65144 2.60946 2.43629 2.39053 2.60946 2.55304 2.65144 2.60946 2.84964 2.79694 2.60946 2.55304 2.79694 2.72774 2.39053 2.33435 2.55304 2.48436 2.33435 2.26926 2.48436 2.40532 2.55304 2.48436 2.72774 2.64466 2.48436 2.40532 2.64466 2.55 2.01843 1.97248 2.14071 2.0819 1.97248 1.92224 2.0819 2.01775 2.14071 2.0819 2.26926 2.19661 2.0819 2.01775 2.19661 2.11764 1.92224 1.86843 2.01775 1.94919 1.86843 1.81171 1.94919 1.87706 2.01775 1.94919 2.11764 2.03348 1.94919 1.87706 2.03348 1.94516 2.26926 2.19661 2.40532 2.3176 2.19661 2.11764 2.3176 2.22268 2.40532 2.3176 2.55 2.44572 2.3176 2.22268 2.44572 2.33355 2.11764 2.03348 2.22268 2.12191 2.03348 1.94516 2.12191 2.01645 2.22268 2.12191 2.33355 2.21497 2.12191 2.01645 2.21497 2.09132 1.81171 1.75272 1.87706 1.80216 1.75272 1.69206 1.80216 1.72522 1.87706 1.80216 1.94516 1.8536 1.80216 1.72522 1.8536 1.75969 1.69206 1.6303 1.72522 1.64694 1.6303 1.56799 1.64694 1.568 1.72522 1.64694 1.75969 1.66424 1.64694 1.568 1.66424 1.56802 1.94516 1.8536 2.01645 1.90739 1.8536 1.75969 1.90739 1.7957 2.01645 1.90739 2.09132 1.96378 1.90739 1.7957 1.96378 1.8334 1.75969 1.66424 1.7957 1.68229 1.66424 1.56802 1.68229 1.56803 1.7957 1.68229 1.8334 1.70118 1.68229 1.56803 1.70118 1.56805 -1.56887 -1.24317 -1.56881 -1.20311 -1.24317 -0.917155 -1.20311 -0.83694 -1.56881 -1.20311 -1.56875 -1.1635 -1.20311 -0.83694 -1.1635 -0.75762 -0.917155 -0.590517 -0.83694 -0.469882 -0.590517 -0.263029 -0.469882 -0.101572 -0.83694 -0.469882 -0.75762 -0.350506 -0.469882 -0.101572 -0.350506 0.0583623 -1.56875 -1.1635 -1.56868 -1.12453 -1.1635 -0.75762 -1.12453 -0.679534 -1.56868 -1.12453 -1.56861 -1.0864 -1.12453 -0.679534 -1.0864 -0.603098 -0.75762 -0.350506 -0.679534 -0.232892 -0.350506 0.0583623 -0.232892 0.216118 -0.679534 -0.232892 -0.603098 -0.117657 -0.232892 0.216118 -0.117657 0.370885 -0.263029 0.0654486 -0.101572 0.268245 0.0654486 0.394931 0.268245 0.639689 -0.101572 0.268245 0.0583623 0.469394 0.268245 0.639689 0.469394 0.88285 0.394931 0.725278 0.639689 1.01271 0.725278 1.05616 1.01271 1.38703 0.639689 1.01271 0.88285 1.2988 1.01271 1.38703 1.2988 1.71707 0.0583623 0.469394 0.216118 0.668099 0.469394 0.88285 0.668099 1.12349 0.216118 0.668099 0.370885 0.863368 0.668099 1.12349 0.863368 1.36046 0.88285 1.2988 1.12349 1.58253 1.2988 1.71707 1.58253 2.04519 1.12349 1.58253 1.36046 1.86259 1.58253 2.04519 1.86259 2.36996 1.05616 1.38703 1.38703 1.76213 1.38703 1.71707 1.76213 2.13722 1.38703 1.76213 1.71707 2.13722 1.76213 2.13722 2.13722 2.55848 1.71707 2.04519 2.13722 2.51114 2.04519 2.36996 2.51114 2.88239 2.13722 2.51114 2.55848 2.97972 2.51114 2.88239 2.97972 3.39936 1.71707 2.13722 2.04519 2.51114 2.13722 2.55848 2.51114 2.97972 2.04519 2.51114 2.36996 2.88239 2.51114 2.97972 2.88239 3.39936 2.55848 2.97972 2.97972 3.44981 2.97972 3.39936 3.44981 3.91987 2.97972 3.44981 3.39936 3.91987 3.44981 3.91987 3.91987 4.44243 2.36996 2.68961 2.88239 3.24905 2.68961 3.00197 3.24905 3.60874 2.88239 3.24905 3.39936 3.81539 3.24905 3.60874 3.81539 4.22526 3.00197 3.30447 3.60874 3.95862 3.30447 3.59411 3.95862 4.29533 3.60874 3.95862 4.22526 4.62588 3.95862 4.29533 4.62588 5.01354 3.39936 3.81539 3.91987 4.38781 3.81539 4.22526 4.38781 4.85095 3.91987 4.38781 4.44243 4.96493 4.38781 4.85095 4.96493 5.48465 4.22526 4.62588 4.85095 5.306 4.62588 5.01354 5.306 5.74894 4.85095 5.306 5.48465 5.99811 5.306 5.74894 5.99811 6.50106 3.59411 3.86744 4.29533 4.61497 3.86744 4.12057 4.61497 4.9131 4.29533 4.61497 5.01354 5.38392 4.61497 4.9131 5.38392 5.73205 4.12057 4.34915 4.9131 5.18476 4.34915 4.54846 5.18476 5.42445 4.9131 5.18476 5.73205 6.05229 5.18476 5.42445 6.05229 6.33836 5.01354 