# vtk DataFile Version 3.0
#This file was generated by the deal.II library on 2020/5/27 at 9:04:35
ASCII
DATASET UNSTRUCTURED_GRID

POINTS 4096 double
0 0 0
0.03125 0 0
0 0.03125 0
0.03125 0.03125 0
0.03125 0 0
0.0625 0 0
0.03125 0.03125 0
0.0625 0.03125 0
0 0.03125 0
0.03125 0.03125 0
0 0.0625 0
0.03125 0.0625 0
0.03125 0.03125 0
0.0625 0.03125 0
0.03125 0.0625 0
0.0625 0.0625 0
0.0625 0 0
0.09375 0 0
0.0625 0.03125 0
0.09375 0.03125 0
0.09375 0 0
0.125 0 0
0.09375 0.03125 0
0.125 0.03125 0
0.0625 0.03125 0
0.09375 0.03125 0
0.0625 0.0625 0
0.09375 0.0625 0
0.09375 0.03125 0
0.125 0.03125 0
0.09375 0.0625 0
0.125 0.0625 0
0.125 0 0
0.15625 0 0
0.125 0.03125 0
0.15625 0.03125 0
0.15625 0 0
0.1875 0 0
0.15625 0.03125 0
0.1875 0.03125 0
0.125 0.03125 0
0.15625 0.03125 0
0.125 0.0625 0
0.15625 0.0625 0
0.15625 0.03125 0
0.1875 0.03125 0
0.15625 0.0625 0
0.1875 0.0625 0
0.1875 0 0
0.21875 0 0
0.1875 0.03125 0
0.21875 0.03125 0
0.21875 0 0
0.25 0 0
0.21875 0.03125 0
0.25 0.03125 0
0.1875 0.03125 0
0.21875 0.03125 0
0.1875 0.0625 0
0.21875 0.0625 0
0.21875 0.03125 0
0.25 0.03125 0
0.21875 0.0625 0
0.25 0.0625 0
0.25 0 0
0.28125 0 0
0.25 0.03125 0
0.28125 0.03125 0
0.28125 0 0
0.3125 0 0
0.28125 0.03125 0
0.3125 0.03125 0
0.25 0.03125 0
0.28125 0.03125 0
0.25 0.0625 0
0.28125 0.0625 0
0.28125 0.03125 0
0.3125 0.03125 0
0.28125 0.0625 0
0.3125 0.0625 0
0.3125 0 0
0.34375 0 0
0.3125 0.03125 0
0.34375 0.03125 0
0.34375 0 0
0.375 0 0
0.34375 0.03125 0
0.375 0.03125 0
0.3125 0.03125 0
0.34375 0.03125 0
0.3125 0.0625 0
0.34375 0.0625 0
0.34375 0.03125 0
0.375 0.03125 0
0.34375 0.0625 0
0.375 0.0625 0
0.375 0 0
0.40625 0 0
0.375 0.03125 0
0.40625 0.03125 0
0.40625 0 0
0.4375 0 0
0.40625 0.03125 0
0.4375 0.03125 0
0.375 0.03125 0
0.40625 0.03125 0
0.375 0.0625 0
0.40625 0.0625 0
0.40625 0.03125 0
0.4375 0.03125 0
0.40625 0.0625 0
0.4375 0.0625 0
0.4375 0 0
0.46875 0 0
0.4375 0.03125 0
0.46875 0.03125 0
0.46875 0 0
0.5 0 0
0.46875 0.03125 0
0.5 0.03125 0
0.4375 0.03125 0
0.46875 0.03125 0
0.4375 0.0625 0
0.46875 0.0625 0
0.46875 0.03125 0
0.5 0.03125 0
0.46875 0.0625 0
0.5 0.0625 0
0.5 0 0
0.53125 0 0
0.5 0.03125 0
0.53125 0.03125 0
0.53125 0 0
0.5625 0 0
0.53125 0.03125 0
0.5625 0.03125 0
0.5 0.03125 0
0.53125 0.03125 0
0.5 0.0625 0
0.53125 0.0625 0
0.53125 0.03125 0
0.5625 0.03125 0
0.53125 0.0625 0
0.5625 0.0625 0
0.5625 0 0
0.59375 0 0
0.5625 0.03125 0
0.59375 0.03125 0
0.59375 0 0
0.625 0 0
0.59375 0.03125 0
0.625 0.03125 0
0.5625 0.03125 0
0.59375 0.03125 0
0.5625 0.0625 0
0.59375 0.0625 0
0.59375 0.03125 0
0.625 0.03125 0
0.59375 0.0625 0
0.625 0.0625 0
0.625 0 0
0.65625 0 0
0.625 0.03125 0
0.65625 0.03125 0
0.65625 0 0
0.6875 0 0
0.65625 0.03125 0
0.6875 0.03125 0
0.625 0.03125 0
0.65625 0.03125 0
0.625 0.0625 0
0.65625 0.0625 0
0.65625 0.03125 0
0.6875 0.03125 0
0.65625 0.0625 0
0.6875 0.0625 0
0.6875 0 0
0.71875 0 0
0.6875 0.03125 0
0.71875 0.03125 0
0.71875 0 0
0.75 0 0
0.71875 0.03125 0
0.75 0.03125 0
0.6875 0.03125 0
0.71875 0.03125 0
0.6875 0.0625 0
0.71875 0.0625 0
0.71875 0.03125 0
0.75 0.03125 0
0.71875 0.0625 0
0.75 0.0625 0
0.75 0 0
0.78125 0 0
0.75 0.03125 0
0.78125 0.03125 0
0.78125 0 0
0.8125 0 0
0.78125 0.03125 0
0.8125 0.03125 0
0.75 0.03125 0
0.78125 0.03125 0
0.75 0.0625 0
0.78125 0.0625 0
0.78125 0.03125 0
0.8125 0.03125 0
0.78125 0.0625 0
0.8125 0.0625 0
0.8125 0 0
0.84375 0 0
0.8125 0.03125 0
0.84375 0.03125 0
0.84375 0 0
0.875 0 0
0.84375 0.03125 0
0.875 0.03125 0
0.8125 0.03125 0
0.84375 0.03125 0
0.8125 0.0625 0
0.84375 0.0625 0
0.84375 0.03125 0
0.875 0.03125 0
0.84375 0.0625 0
0.875 0.0625 0
0.875 0 0
0.90625 0 0
0.875 0.03125 0
0.90625 0.03125 0
0.90625 0 0
0.9375 0 0
0.90625 0.03125 0
0.9375 0.03125 0
0.875 0.03125 0
0.90625 0.03125 0
0.875 0.0625 0
0.90625 0.0625 0
0.90625 0.03125 0
0.9375 0.03125 0
0.90625 0.0625 0
0.9375 0.0625 0
0.9375 0 0
0.96875 0 0
0.9375 0.03125 0
0.96875 0.03125 0
0.96875 0 0
1 0 0
0.96875 0.03125 0
1 0.03125 0
0.9375 0.03125 0
0.96875 0.03125 0
0.9375 0.0625 0
0.96875 0.0625 0
0.96875 0.03125 0
1 0.03125 0
0.96875 0.0625 0
1 0.0625 0
0 0.0625 0
0.03125 0.0625 0
0 0.09375 0
0.03125 0.09375 0
0.03125 0.0625 0
0.0625 0.0625 0
0.03125 0.09375 0
0.0625 0.09375 0
0 0.09375 0
0.03125 0.09375 0
0 0.125 0
0.03125 0.125 0
0.03125 0.09375 0
0.0625 0.09375 0
0.03125 0.125 0
0.0625 0.125 0
0.0625 0.0625 0
0.09375 0.0625 0
0.0625 0.09375 0
0.09375 0.09375 0
0.09375 0.0625 0
0.125 0.0625 0
0.09375 0.09375 0
0.125 0.09375 0
0.0625 0.09375 0
0.09375 0.09375 0
0.0625 0.125 0
0.09375 0.125 0
0.09375 0.09375 0
0.125 0.09375 0
0.09375 0.125 0
0.125 0.125 0
0.125 0.0625 0
0.15625 0.0625 0
0.125 0.09375 0
0.15625 0.09375 0
0.15625 0.0625 0
0.1875 0.0625 0
0.15625 0.09375 0
0.1875 0.09375 0
0.125 0.09375 0
0.15625 0.09375 0
0.125 0.125 0
0.15625 0.125 0
0.15625 0.09375 0
0.1875 0.09375 0
0.15625 0.125 0
0.1875 0.125 0
0.1875 0.0625 0
0.21875 0.0625 0
0.1875 0.09375 0
0.21875 0.09375 0
0.21875 0.0625 0
0.25 0.0625 0
0.21875 0.09375 0
0.25 0.09375 0
0.1875 0.09375 0
0.21875 0.09375 0
0.1875 0.125 0
0.21875 0.125 0
0.21875 0.09375 0
0.25 0.09375 0
0.21875 0.125 0
0.25 0.125 0
0.25 0.0625 0
0.28125 0.0625 0
0.25 0.09375 0
0.28125 0.09375 0
0.28125 0.0625 0
0.3125 0.0625 0
0.28125 0.09375 0
0.3125 0.09375 0
0.25 0.09375 0
0.28125 0.09375 0
0.25 0.125 0
0.28125 0.125 0
0.28125 0.09375 0
0.3125 0.09375 0
0.28125 0.125 0
0.3125 0.125 0
0.3125 0.0625 0
0.34375 0.0625 0
0.3125 0.09375 0
0.34375 0.09375 0
0.34375 0.0625 0
0.375 0.0625 0
0.34375 0.09375 0
0.375 0.09375 0
0.3125 0.09375 0
0.34375 0.09375 0
0.3125 0.125 0
0.34375 0.125 0
0.34375 0.09375 0
0.375 0.09375 0
0.34375 0.125 0
0.375 0.125 0
0.375 0.0625 0
0.40625 0.0625 0
0.375 0.09375 0
0.40625 0.09375 0
0.40625 0.0625 0
0.4375 0.0625 0
0.40625 0.09375 0
0.4375 0.09375 0
0.375 0.09375 0
0.40625 0.09375 0
0.375 0.125 0
0.40625 0.125 0
0.40625 0.09375 0
0.4375 0.09375 0
0.40625 0.125 0
0.4375 0.125 0
0.4375 0.0625 0
0.46875 0.0625 0
0.4375 0.09375 0
0.46875 0.09375 0
0.46875 0.0625 0
0.5 0.0625 0
0.46875 0.09375 0
0.5 0.09375 0
0.4375 0.09375 0
0.46875 0.09375 0
0.4375 0.125 0
0.46875 0.125 0
0.46875 0.09375 0
0.5 0.09375 0
0.46875 0.125 0
0.5 0.125 0
0.5 0.0625 0
0.53125 0.0625 0
0.5 0.09375 0
0.53125 0.09375 0
0.53125 0.0625 0
0.5625 0.0625 0
0.53125 0.09375 0
0.5625 0.09375 0
0.5 0.09375 0
0.53125 0.09375 0
0.5 0.125 0
0.53125 0.125 0
0.53125 0.09375 0
0.5625 0.09375 0
0.53125 0.125 0
0.5625 0.125 0
0.5625 0.0625 0
0.59375 0.0625 0
0.5625 0.09375 0
0.59375 0.09375 0
0.59375 0.0625 0
0.625 0.0625 0
0.59375 0.09375 0
0.625 0.09375 0
0.5625 0.09375 0
0.59375 0.09375 0
0.5625 0.125 0
0.59375 0.125 0
0.59375 0.09375 0
0.625 0.09375 0
0.59375 0.125 0
0.625 0.125 0
0.625 0.0625 0
0.65625 0.0625 0
0.625 0.09375 0
0.65625 0.09375 0
0.65625 0.0625 0
0.6875 0.0625 0
0.65625 0.09375 0
0.6875 0.09375 0
0.625 0.09375 0
0.65625 0.09375 0
0.625 0.125 0
0.65625 0.125 0
0.65625 0.09375 0
0.6875 0.09375 0
0.65625 0.125 0
0.6875 0.125 0
0.6875 0.0625 0
0.71875 0.0625 0
0.6875 0.09375 0
0.71875 0.09375 0
0.71875 0.0625 0
0.75 0.0625 0
0.71875 0.09375 0
0.75 0.09375 0
0.6875 0.09375 0
0.71875 0.09375 0
0.6875 0.125 0
0.71875 0.125 0
0.71875 0.09375 0
0.75 0.09375 0
0.71875 0.125 0
0.75 0.125 0
0.75 0.0625 0
0.78125 0.0625 0
0.75 0.09375 0
0.78125 0.09375 0
0.78125 0.0625 0
0.8125 0.0625 0
0.78125 0.09375 0
0.8125 0.09375 0
0.75 0.09375 0
0.78125 0.09375 0
0.75 0.125 0
0.78125 0.125 0
0.78125 0.09375 0
0.8125 0.09375 0
0.78125 0.125 0
0.8125 0.125 0
0.8125 0.0625 0
0.84375 0.0625 0
0.8125 0.09375 0
0.84375 0.09375 0
0.84375 0.0625 0
0.875 0.0625 0
0.84375 0.09375 0
0.875 0.09375 0
0.8125 0.09375 0
0.84375 0.09375 0
0.8125 0.125 0
0.84375 0.125 0
0.84375 0.09375 0
0.875 0.09375 0
0.84375 0.125 0
0.875 0.125 0
0.875 0.0625 0
0.90625 0.0625 0
0.875 0.09375 0
0.90625 0.09375 0
0.90625 0.0625 0
0.9375 0.0625 0
0.90625 0.09375 0
0.9375 0.09375 0
0.875 0.09375 0
0.90625 0.09375 0
0.875 0.125 0
0.90625 0.125 0
0.90625 0.09375 0
0.9375 0.09375 0
0.90625 0.125 0
0.9375 0.125 0
0.9375 0.0625 0
0.96875 0.0625 0
0.9375 0.09375 0
0.96875 0.09375 0
0.96875 0.0625 0
1 0.0625 0
0.96875 0.09375 0
1 0.09375 0
0.9375 0.09375 0
0.96875 0.09375 0
0.9375 0.125 0
0.96875 0.125 0
0.96875 0.09375 0
1 0.09375 0
0.96875 0.125 0
1 0.125 0
0 0.125 0
0.03125 0.125 0
0 0.15625 0
0.03125 0.15625 0
0.03125 0.125 0
0.0625 0.125 0
0.03125 0.15625 0
0.0625 0.15625 0
0 0.15625 0
0.03125 0.15625 0
0 0.1875 0
0.03125 0.1875 0
0.03125 0.15625 0
0.0625 0.15625 0
0.03125 0.1875 0
0.0625 0.1875 0
0.0625 0.125 0
0.09375 0.125 0
0.0625 0.15625 0
0.09375 0.15625 0
0.09375 0.125 0
0.125 0.125 0
0.09375 0.15625 0
0.125 0.15625 0
0.0625 0.15625 0
0.09375 0.15625 0
0.0625 0.1875 0
0.09375 0.1875 0
0.09375 0.15625 0
0.125 0.15625 0
0.09375 0.1875 0
0.125 0.1875 0
0.125 0.125 0
0.15625 0.125 0
0.125 0.15625 0
0.15625 0.15625 0
0.15625 0.125 0
0.1875 0.125 0
0.15625 0.15625 0
0.1875 0.15625 0
0.125 0.15625 0
0.15625 0.15625 0
0.125 0.1875 0
0.15625 0.1875 0
0.15625 0.15625 0
0.1875 0.15625 0
0.15625 0.1875 0
0.1875 0.1875 0
0.1875 0.125 0
0.21875 0.125 0
0.1875 0.15625 0
0.21875 0.15625 0
0.21875 0.125 0
0.25 0.125 0
0.21875 0.15625 0
0.25 0.15625 0
0.1875 0.15625 0
0.21875 0.15625 0
0.1875 0.1875 0
0.21875 0.1875 0
0.21875 0.15625 0
0.25 0.15625 0
0.21875 0.1875 0
0.25 0.1875 0
0.25 0.125 0
0.28125 0.125 0
0.25 0.15625 0
0.28125 0.15625 0
0.28125 0.125 0
0.3125 0.125 0
0.28125 0.15625 0
0.3125 0.15625 0
0.25 0.15625 0
0.28125 0.15625 0
0.25 0.1875 0
0.28125 0.1875 0
0.28125 0.15625 0
0.3125 0.15625 0
0.28125 0.1875 0
0.3125 0.1875 0
0.3125 0.125 0
0.34375 0.125 0
0.3125 0.15625 0
0.34375 0.15625 0
0.34375 0.125 0
0.375 0.125 0
0.34375 0.15625 0
0.375 0.15625 0
0.3125 0.15625 0
0.34375 0.15625 0
0.3125 0.1875 0
0.34375 0.1875 0
0.34375 0.15625 0
0.375 0.15625 0
0.34375 0.1875 0
0.375 0.1875 0
0.375 0.125 0
0.40625 0.125 0
0.375 0.15625 0
0.40625 0.15625 0
0.40625 0.125 0
0.4375 0.125 0
0.40625 0.15625 0
0.4375 0.15625 0
0.375 0.15625 0
0.40625 0.15625 0
0.375 0.1875 0
0.40625 0.1875 0
0.40625 0.15625 0
[...]
POINT_DATA 4096
SCALARS solution double 1
LOOKUP_TABLE default
-1.56921 -1.56914 -1.56914 -1.19923 -1.56914 -1.56906 -1.19923 -0.829306 -1.56914 -1.19923 -1.56906 -0.829306 -1.19923 -0.829306 -0.829306 -0.0895049 -1.56906 -1.56897 -0.829306 -0.459402 -1.56897 -1.56887 -0.459402 -0.089618 -0.829306 -0.459402 -0.0895049 0.650303 -0.459402 -0.089618 0.650303 1.38996 -1.56887 -1.56875 -0.089618 0.279841 -1.56875 -1.56861 0.279841 0.648587 -0.089618 0.279841 1.38996 2.12913 0.279841 0.648587 2.12913 2.86716 -1.56861 -1.56845 0.648587 1.0159 -1.56845 -1.56827 1.0159 1.38043 0.648587 1.0159 2.86716 3.6029 1.0159 1.38043 3.6029 4.33413 -1.56827 -1.56806 1.38043 1.73969 -1.56806 -1.5678 1.73969 2.0892 1.38043 1.73969 4.33413 5.05671 1.73969 2.0892 5.05671 5.76292 -1.5678 -1.5675 2.0892 2.42127 -1.5675 -1.56712 2.42127 2.72339 2.0892 2.42127 5.76292 6.43899 2.42127 2.72339 6.43899 7.06169 -1.56712 -1.56665 2.72339 2.97651 -1.56665 -1.56603 2.97651 3.15388 2.72339 2.97651 7.06169 7.5943 2.97651 3.15388 7.5943 7.98309 -1.56603 -1.5652 3.15388 3.22137 -1.5652 -1.56403 3.22137 3.13951 3.15388 3.22137 7.98309 8.15712 3.22137 3.13951 8.15712 8.03576 -1.56403 -1.56222 3.13951 2.86117 -1.56222 -1.5591 2.86117 2.29047 3.13951 2.86117 8.03576 7.54796 2.86117 2.29047 7.54796 6.65942 -1.5591 -1.55239 2.29047 1.04702 -1.55239 -1.52763 1.04702 -2.58851 2.29047 1.04702 6.65942 5.40349 1.04702 -2.58851 5.40349 3.87607 -1.52763 1.44671 -2.58851 -1.40407 1.44671 1.54529 -1.40407 2.62706 -2.58851 -1.40407 3.87607 4.51572 -1.40407 2.62706 4.51572 5.95916 1.54529 1.55659 2.62706 3.63383 1.55659 1.56095 3.63383 3.79013 2.62706 3.63383 5.95916 6.36549 3.63383 3.79013 6.36549 6.25058 1.56095 1.56326 3.79013 3.66541 1.56326 1.5647 3.66541 3.42958 3.79013 3.66541 6.25058 5.86424 3.66541 3.42958 5.86424 5.33832 1.5647 1.56567 3.42958 3.14473 1.56567 1.56638 3.14473 2.83803 3.42958 3.14473 5.33832 4.74334 3.14473 2.83803 4.74334 4.1173 1.56638 1.56691 2.83803 2.52252 1.56691 1.56733 2.52252 2.20435 2.83803 2.52252 4.1173 3.4801 2.52252 2.20435 3.4801 2.84117 1.56733 1.56767 2.20435 1.886 1.56767 1.56795 1.886 1.56796 2.20435 1.886 2.84117 2.20381 1.886 1.56796 2.20381 1.56799 -1.56906 -0.829306 -1.56897 -0.459402 -0.829306 -0.0895049 -0.459402 0.650303 -1.56897 -0.459402 -1.56887 -0.089618 -0.459402 0.650303 -0.089618 1.38996 -0.0895049 0.650303 0.650303 1.76016 0.650303 1.38996 1.76016 2.87002 0.650303 1.76016 1.38996 2.87002 1.76016 2.87002 2.87002 4.35046 1.38996 2.12913 2.87002 3.9795 2.12913 2.86716 3.9795 5.08792 2.87002 3.9795 4.35046 5.83089 3.9795 5.08792 5.83089 7.31079 2.86716 3.6029 5.08792 6.19413 3.6029 4.33413 6.19413 7.29598 5.08792 6.19413 7.31079 8.78946 6.19413 7.29598 8.78946 10.2658 4.33413 5.05671 7.29598 8.38921 5.05671 5.76292 8.38921 9.46531 7.29598 8.38921 10.2658 11.7376 8.38921 9.46531 11.7376 13.1991 5.76292 6.43899 9.46531 10.5079 6.43899 7.06169 10.5079 11.4873 9.46531 10.5079 13.1991 14.6367 10.5079 11.4873 14.6367 16.0219 7.06169 7.5943 11.4873 12.353 7.5943 7.98309 12.353 13.0254 11.4873 12.353 16.0219 17.2993 12.353 13.0254 17.2993 18.3703 7.98309 8.15712 13.0254 13.39 8.15712 8.03576 13.39 13.3056 13.0254 13.39 18.3703 19.0732 13.39 13.3056 19.0732 19.1694 8.03576 7.54796 13.3056 12.6475 7.54796 6.65942 12.6475 11.4262 13.3056 12.6475 19.1694 18.3699 12.6475 11.4262 18.3699 16.5066 6.65942 5.40349 11.4262 10.059 5.40349 3.87607 10.059 10.9827 11.4262 10.059 16.5066 13.9549 10.059 10.9827 13.9549 10.9798 3.87607 4.51572 10.9827 12.2323 4.51572 5.95916 12.2323 10.2056 10.9827 12.2323 10.9798 13.8508 12.2323 10.2056 13.8508 13.7427 5.95916 6.36549 10.2056 9.58048 6.36549 6.25058 9.58048 8.96275 10.2056 9.58048 13.7427 12.9134 9.58048 8.96275 12.9134 11.845 6.25058 5.86424 8.96275 8.19253 5.86424 5.33832 8.19253 7.31072 8.96275 8.19253 11.845 10.631 8.19253 7.31072 10.631 9.33846 5.33832 4.74334 7.31072 6.36995 4.74334 4.1173 6.36995 5.40593 7.31072 6.36995 9.33846 8.01691 6.36995 5.40593 8.01691 6.69615 4.1173 3.4801 5.40593 4.43835 3.4801 2.84117 4.43835 3.4758 5.40593 4.43835 6.69615 5.39038 4.43835 3.4758 5.39038 4.10314 2.84117 2.20381 3.4758 2.51982 2.20381 1.56799 2.51982 1.56802 3.4758 2.51982 4.10314 2.83132 2.51982 1.56802 2.83132 1.56805 -1.56887 -0.089618 -1.56875 0.279841 -0.089618 1.38996 0.279841 2.12913 -1.56875 0.279841 -1.56861 0.648587 0.279841 2.12913 0.648587 2.86716 1.38996 2.87002 2.12913 3.9795 2.87002 4.35046 3.9795 5.83089 2.12913 3.9795 2.86716 5.08792 3.9795 5.83089 5.08792 7.31079 4.35046 5.83089 5.83089 7.68286 5.83089 7.31079 7.68286 9.53489 5.83089 7.68286 7.31079 9.53489 7.68286 9.53489 9.53489 11.7592 7.31079 8.78946 9.53489 11.3869 8.78946 10.2658 11.3869 13.2398 9.53489 11.3869 11.7592 13.9838 11.3869 13.2398 13.9838 16.2113 10.2658 11.7376 13.2398 15.0953 11.7376 13.1991 15.0953 16.9544 13.2398 15.0953 16.2113 18.4488 15.0953 16.9544 18.4488 20.7077 13.1991 14.6367 16.9544 18.8138 14.6367 16.0219 18.8138 20.6574 16.9544 18.8138 20.7077 23.0026 18.8138 20.6574 23.0026 25.344 16.0219 17.2993 20.6574 22.4416 17.2993 18.3703 22.4416 24.07 20.6574 22.4416 25.344 27.7249 22.4416 24.07 27.7249 30.0911 18.3703 19.0732 24.07 25.3519 19.0732 19.1694 25.3519 25.9403 24.07 25.3519 30.0911 32.2854 25.3519 25.9403 32.2854 33.9375 19.1694 18.3699 25.9403 25.25 18.3699 16.5066 25.25 22.4335 25.9403 25.25 33.9375 34.2591 25.25 22.4335 34.2591 31.4385 16.5066 13.9549 22.4335 17.0602 13.9549 10.9798 17.0602 21.6918 22.4335 17.0602 31.4385 21.7656 17.0602 21.6918 21.7656 19.5673 10.9798 13.8508 21.6918 18.4895 13.8508 13.7427 18.4895 17.7153 21.6918 18.4895 19.5673 23.5152 18.4895 17.7153 23.5152 22.4354 13.7427 12.9134 17.7153 16.4669 12.9134 11.845 16.4669 14.8708 17.7153 16.4669 22.4354 20.3407 16.4669 14.8708 20.3407 18.0081 11.845 10.631 14.8708 13.1442 10.631 9.33846 13.1442 11.3915 14.8708 13.1442 18.0081 15.6744 13.1442 11.3915 15.6744 13.4185 9.33846 8.01691 11.3915 9.66027 8.01691 6.69615 9.66027 7.96952 11.3915 9.66027 13.4185 11.2606 9.66027 7.96952 11.2606 9.19743 6.69615 5.39038 7.96952 6.32271 5.39038 4.10314 6.32271 4.71438 7.96952 6.32271 9.19743 7.21567 6.32271 4.71438 7.21567 5.29722 4.10314 2.83132 4.71438 3.13397 2.83132 1.56805 3.13397 1.56809 4.71438 3.13397 5.29722 3.42183 3.13397 1.56809 3.42183 1.56814 -1.56861 0.648587 -1.56845 1.0159 0.648587 2.86716 1.0159 3.6029 -1.56845 1.0159 -1.56827 1.38043 1.0159 3.6029 1.38043 4.33413 2.86716 5.08792 3.6029 6.19413 5.08792 7.31079 6.19413 8.78946 3.6029 6.19413 4.33413 7.29598 6.19413 8.78946 7.29598 10.2658 7.31079 9.53489 8.78946 11.3869 9.53489 11.7592 11.3869 13.9838 8.78946 11.3869 10.2658 13.2398 11.3869 13.9838 13.2398 16.2113 11.7592 13.9838 13.9838 16.5784 13.9838 16.2113 16.5784 19.1739 13.9838 16.5784 16.2113 19.1739 16.5784 19.1739 19.1739 22.1264 16.2113 18.4488 19.1739 21.7814 18.4488 20.7077 21.7814 24.4248 19.1739 21.7814 22.1264 25.0809 21.7814 24.4248 25.0809 28.0704 20.7077 23.0026 24.4248 27.1422 23.0026 25.344 27.1422 29.9845 24.4248 27.1422 28.0704 31.1581 27.1422 29.9845 31.1581 34.4428 25.344 27.7249 29.9845 33.0075 27.7249 30.0911 33.0075 36.2518 29.9845 33.0075 34.4428 38.0606 33.0075 36.2518 38.0606 42.1863 30.0911 32.2854 36.2518 39.6974 32.2854 33.9375 39.6974 43.1423 36.2518 39.6974 42.1863 47.0425 39.6974 43.1423 47.0425 52.8667 33.9375 34.2591 43.1423 45.978 34.2591 31.4385 45.978 47.4835 43.1423 45.978 52.8667 59.4651 45.978 47.4835 59.4651 64.9576 31.4385 21.7656 47.4835 37.3789 21.7656 19.5673 37.3789 35.9678 47.4835 37.3789 64.9576 64.5772 37.3789 35.9678 64.5772 49.2755 19.5673 23.5152 35.9678 31.6444 23.5152 22.4354 31.6444 27.9155 35.9678 31.6444 49.2755 39.6685 31.6444 27.9155 39.6685 33.1884 22.4354 20.3407 27.9155 24.3901 20.3407 18.0081 24.3901 21.1241 27.9155 24.3901 33.1884 28.1683 24.3901 21.1241 28.1683 23.9752 18.0081 15.6744 21.1241 18.118 15.6744 13.4185 18.118 15.3437 21.1241 18.118 23.9752 20.3287 18.118 15.3437 20.3287 17.0739 13.4185 11.2606 15.3437 12.7644 11.2606 9.19743 12.7644 10.3432 15.3437 12.7644 17.0739 14.1106 12.7644 10.3432 14.1106 11.3662 9.19743 7.21567 10.3432 8.04489 7.21567 5.29722 8.04489 5.83681 10.3432 8.04489 11.3662 8.78416 8.04489 5.83681 8.78416 6.3174 5.29722 3.42183 5.83681 3.68787 3.42183 1.56814 3.68787 1.56819 5.83681 3.68787 6.3174 3.9247 3.68787 1.56819 3.9247 1.56825 -1.56827 1.38043 -1.56806 1.73969 1.38043 4.33413 1.73969 5.05671 -1.56806 1.73969 -1.5678 2.0892 1.73969 5.05671 2.0892 5.76292 4.33413 7.29598 5.05671 8.38921 7.29598 10.2658 8.38921 11.7376 5.05671 8.38921 5.76292 9.46531 8.38921 11.7376 9.46531 13.1991 10.2658 13.2398 11.7376 15.0953 13.2398 16.2113 15.0953 18.4488 11.7376 15.0953 13.1991 16.9544 15.0953 18.4488 16.9544 20.7077 16.2113 19.1739 18.4488 21.7814 19.1739 22.1264 21.7814 25.0809 18.4488 21.7814 20.7077 24.4248 21.7814 25.0809 24.4248 28.0704 22.1264 25.0809 25.0809 28.3505 25.0809 28.0704 28.3505 31.6241 25.0809 28.3505 28.0704 31.6241 28.3505 31.6241 31.6241 35.1031 28.0704 31.1581 31.6241 34.9836 31.1581 34.4428 34.9836 38.5744 31.6241 34.9836 35.1031 38.5905 34.9836 38.5744 38.5905 42.2693 34.4428 38.0606 38.5744 42.6145 38.0606 42.1863 42.6145 47.401 38.5744 42.6145 42.2693 46.4421 42.6145 47.401 46.4421 51.4847 42.1863 47.0425 47.401 53.3914 47.0425 52.8667 53.3914 61.5301 47.401 53.3914 51.4847 57.7739 53.3914 61.5301 57.7739 66.3748 52.8667 59.4651 61.5301 73.9055 59.4651 64.9576 73.9055 89.2441 61.5301 73.9055 66.3748 81.2575 73.9055 89.2441 81.2575 89.2197 64.9576 64.5772 89.2441 70.4866 64.5772 49.2755 70.4866 55.6988 89.2441 70.4866 89.2197 71.5307 70.4866 55.6988 71.5307 57.5375 49.2755 39.6685 55.6988 44.9385 39.6685 33.1884 44.9385 37.1455 55.6988 44.9385 57.5375 47.2643 44.9385 37.1455 47.2643 39.3769 33.1884 28.1683 37.1455 31.1655 28.1683 23.9752 31.1655 26.2972 37.1455 31.1655 39.3769 33.1003 31.1655 26.2972 33.1003 27.9171 23.9752 20.3287 26.2972 22.1553 20.3287 17.0739 22.1553 18.5167 26.2972 22.1553 27.9171 23.4912 22.1553 18.5167 23.4912 19.6041 17.0739 14.1106 18.5167 15.2401 14.1106 11.3662 15.2401 12.2284 18.5167 15.2401 19.6041 16.1086 15.2401 12.2284 16.1086 12.9004 11.3662 8.78416 12.2284 9.40904 8.78416 6.3174 9.40904 6.72441 12.2284 9.40904 12.9004 9.90058 9.40904 6.72441 9.90058 7.04648 6.3174 3.9247 6.72441 4.1255 3.9247 1.56825 4.1255 1.5683 6.72441 4.1255 7.04648 4.28493 4.1255 1.5683 4.28493 1.56836 -1.5678 2.0892 -1.5675 2.42127 2.0892 5.76292 2.42127 6.43899 -1.5675 2.42127 -1.56712 2.72339 2.42127 6.43899 2.72339 7.06169 5.76292 9.46531 6.43899 10.5079 9.46531 13.1991 10.5079 14.6367 6.43899 10.5079 7.06169 11.4873 10.5079 14.6367 11.4873 16.0219 13.1991 16.9544 14.6367 18.8138 16.9544 20.7077 18.8138 23.0026 14.6367 18.8138 16.0219 20.6574 18.8138 23.0026 20.6574 25.344 20.7077 24.4248 23.0026 27.1422 24.4248 28.0704 27.1422 31.1581 23.0026 27.1422 25.344 29.9845 27.1422 31.1581 29.9845 34.4428 28.0704 31.6241 31.1581 34.9836 31.6241 35.1031 34.9836 38.5905 31.1581 34.9836 34.4428 38.5744 34.9836 38.5905 38.5744 42.2693 35.1031 38.5905 38.5905 42.0285 38.5905 42.2693 42.0285 45.4868 38.5905 42.0285 42.2693 45.4868 42.0285 45.4868 45.4868 48.3134 42.2693 46.4421 45.4868 49.3886 46.4421 51.4847 49.3886 54.3614 45.4868 49.3886 48.3134 51.2189 49.3886 54.3614 51.2189 55.6686 51.4847 57.7739 54.3614 60.3923 57.7739 66.3748 60.3923 65.2637 54.3614 60.3923 55.6686 64.216 60.3923 65.2637 64.216 68.4635 66.3748 81.2575 65.2637 80.1083 81.2575 89.2197 80.1083 74.7861 65.2637 80.1083 68.4635 66.5583 80.1083 74.7861 66.5583 65.3903 89.2197 71.5307 74.7861 65.6755 71.5307 57.5375 65.6755 55.8626 74.7861 65.6755 65.3903 59.6879 65.6755 55.8626 59.6879 52.7146 57.5375 47.2643 55.8626 47.2583 47.2643 39.3769 47.2583 40.0374 55.8626 47.2583 52.7146 45.8257 47.2583 40.0374 45.8257 39.5412 39.3769 33.1003 40.0374 33.9715 33.1003 27.9171 33.9715 28.7986 40.0374 33.9715 39.5412 33.958 33.9715 28.7986 33.958 29.015 27.9171 23.4912 28.7986 24.2994 23.4912 19.6041 24.2994 20.3065 28.7986 24.2994 29.015 24.6082 24.2994 20.3065 24.6082 20.6331 19.6041 16.1086 20.3065 16.694 16.1086 12.9004 16.694 13.3664 20.3065 16.694 20.6331 16.9979 16.694 13.3664 16.9979 13.6252 12.9004 9.90058 13.3664 10.248 9.90058 7.04648 10.248 7.27686 13.3664 10.248 13.6252 10.4494 10.248 7.27686 10.4494 7.41406 7.04648 4.28493 7.27686 4.39975 4.28493 1.56836 4.39975 1.56842 7.27686 4.39975 7.41406 4.46915 4.39975 1.56842 4.46915 1.56849 -1.56712 2.72339 -1.56665 2.97651 2.72339 7.06169 2.97651 7.5943 -1.56665 2.97651 -1.56603 3.15388 2.97651 7.5943 3.15388 7.98309 7.06169 11.4873 7.5943 12.353 11.4873 16.0219 12.353 17.2993 7.5943 12.353 7.98309 13.0254 12.353 17.2993 13.0254 18.3703 16.0219 20.6574 17.2993 22.4416 20.6574 25.344 22.4416 27.7249 17.2993 22.4416 18.3703 24.07 22.4416 27.7249 24.07 30.0911 25.344 29.9845 27.7249 33.0075 29.9845 34.4428 33.0075 38.0606 27.7249 33.0075 30.0911 36.2518 33.0075 38.0606 36.2518 42.1863 34.4428 38.5744 38.0606 42.6145 38.5744 42.2693 42.6145 46.4421 38.0606 42.6145 42.1863 47.401 42.6145 46.4421 47.401 51.4847 42.2693 45.4868 46.4421 49.3886 45.4868 48.3134 49.3886 51.2189 46.4421 49.3886 51.4847 54.3614 49.3886 51.2189 54.3614 55.6686 48.3134 51.2189 51.2189 51.8023 51.2189 55.6686 51.8023 52.4152 51.2189 51.8023 55.6686 52.4152 51.8023 52.4152 52.4152 46.7455 55.6686 64.216 52.4152 62.2419 64.216 68.4635 62.2419 72.4041 52.4152 62.2419 46.7455 50.851 62.2419 72.4041 50.851 59.0101 68.4635 66.5583 72.4041 63.8763 66.5583 65.3903 63.8763 59.5062 72.4041 63.8763 59.0101 57.9084 63.8763 59.5062 57.9084 54.5921 65.3903 59.6879 59.5062 54.7642 59.6879 52.7146 54.7642 49.3322 59.5062 54.7642 54.5921 50.5817 54.7642 49.3322 50.5817 46.0876 52.7146 45.8257 49.3322 43.7236 45.8257 39.5412 43.7236 38.321 49.3322 43.7236 46.0876 41.3774 43.7236 38.321 41.3774 36.6988 39.5412 33.958 38.321 33.2984 33.958 29.015 33.2984 28.6958 38.321 33.2984 36.6988 32.2086 33.2984 28.6958 32.2086 27.9783 29.015 24.6082 28.6958 24.4876 24.6082 20.6331 24.4876 20.6222 28.6958 24.4876 27.9783 24.0233 24.4876 20.6222 24.0233 20.3269 20.6331 16.9979 20.6222 17.0414 16.9979 13.6252 17.0414 13.6885 20.6222 17.0414 20.3269 16.8575 17.0414 13.6885 16.8575 13.5771 13.6252 10.4494 13.6885 10.5113 10.4494 7.41406 10.5113 7.46148 13.6885 10.5113 13.5771 10.4463 10.5113 7.46148 10.4463 7.42636 7.41406 4.46915 7.46148 4.49459 4.46915 1.56849 4.49459 1.56855 7.46148 4.49459 7.42636 4.47938 4.49459 1.56855 4.47938 1.56861 -1.56603 3.15388 -1.5652 3.22137 3.15388 7.98309 3.22137 8.15712 -1.5652 3.22137 -1.56403 3.13951 3.22137 8.15712 3.13951 8.03576 7.98309 13.0254 8.15712 13.39 13.0254 18.3703 13.39 19.0732 8.15712 13.39 8.03576 13.3056 13.39 19.0732 13.3056 19.1694 18.3703 24.07 19.0732 25.3519 24.07 30.0911 25.3519 32.2854 19.0732 25.3519 19.1694 25.9403 25.3519 32.2854 25.9403 33.9375 30.0911 36.2518 32.2854 39.6974 36.2518 42.1863 39.6974 47.0425 32.2854 39.6974 33.9375 43.1423 39.6974 47.0425 43.1423 52.8667 42.1863 47.401 47.0425 53.3914 47.401 51.4847 53.3914 57.7739 47.0425 53.3914 52.8667 61.5301 53.3914 57.7739 61.5301 66.3748 51.4847 54.3614 57.7739 60.3923 54.3614 55.6686 60.3923 64.216 57.7739 60.3923 66.3748 65.2637 60.3923 64.216 65.2637 68.4635 55.6686 52.4152 64.216 62.2419 52.4152 46.7455 62.2419 50.851 64.216 62.2419 68.4635 72.4041 62.2419 50.851 72.4041 59.0101 46.7455 50.851 50.851 52.8425 50.851 59.0101 52.8425 53.8773 50.851 52.8425 59.0101 53.8773 52.8425 53.8773 53.8773 51.581 59.0101 57.9084 53.8773 52.9096 57.9084 54.5921 52.9096 50.3168 53.8773 52.9096 51.581 49.4321 52.9096 50.3168 49.4321 46.7775 54.5921 50.5817 50.3168 46.9055 50.5817 46.0876 46.9055 43.0511 50.3168 46.9055 46.7775 43.6558 46.9055 43.0511 43.6558 40.2218 46.0876 41.3774 43.0511 38.9818 41.3774 36.6988 38.9818 34.8735 43.0511 38.9818 40.2218 36.616 38.9818 34.8735 36.616 32.9549 36.6988 32.2086 34.8735 30.8492 32.2086 27.9783 30.8492 26.9805 34.8735 30.8492 32.9549 29.3273 30.8492 26.9805 29.3273 25.792 27.9783 24.0233 26.9805 23.2978 24.0233 20.3269 23.2978 19.8038 26.9805 23.2978 25.792 22.3808 23.2978 19.8038 22.3808 19.1045 20.3269 16.8575 19.8038 16.4843 16.8575 13.5771 16.4843 13.316 19.8038 16.4843 19.1045 15.9593 16.4843 13.316 15.9593 12.9316 13.5771 10.4463 13.316 10.2708 10.4463 7.42636 10.2708 7.31839 13.316 10.2708 12.9316 10.0022 10.2708 7.31839 10.0022 7.14836 7.42636 4.47938 7.31839 4.42803 4.47938 1.56861 4.42803 1.56867 7.31839 4.42803 7.14836 4.34568 4.42803 1.56867 4.34568 1.56874 -1.56403 3.13951 -1.56222 2.86117 3.13951 8.03576 2.86117 7.54796 -1.56222 2.86117 -1.5591 2.29047 2.86117 7.54796 2.29047 6.65942 8.03576 13.3056 7.54796 12.6475 13.3056 19.1694 12.6475 18.3699 7.54796 12.6475 6.65942 11.4262 12.6475 18.3699 11.4262 16.5066 19.1694 25.9403 18.3699 25.25 25.9403 33.9375 25.25 34.2591 18.3699 25.25 16.5066 22.4335 25.25 34.2591 22.4335 31.4385 33.9375 43.1423 34.2591 45.978 43.1423 52.8667 45.978 59.4651 34.2591 45.978 31.4385 47.4835 45.978 59.4651 47.4835 64.9576 52.8667 61.5301 59.4651 73.9055 61.5301 66.3748 73.9055 81.2575 59.4651 73.9055 64.9576 89.2441 73.9055 81.2575 89.2441 89.2197 66.3748 65.2637 81.2575 80.1083 65.2637 68.4635 80.1083 66.5583 81.2575 80.1083 89.2197 74.7861 80.1083 66.5583 74.7861 65.3903 68.4635 72.4041 66.5583 63.8763 72.4041 59.0101 63.8763 57.9084 66.5583 63.8763 65.3903 59.5062 63.8763 57.9084 59.5062 54.5921 59.0101 53.8773 57.9084 52.9096 53.8773 51.581 52.9096 49.4321 57.9084 52.9096 54.5921 50.3168 52.9096 49.4321 50.3168 46.7775 51.581 49.4321 49.4321 46.5549 49.4321 46.7775 46.5549 43.71 49.4321 46.5549 46.7775 43.71 46.5549 43.71 43.71 40.819 46.7775 43.6558 43.71 40.7139 43.6558 40.2218 40.7139 37.5602 43.71 40.7139 40.819 37.937 40.7139 37.5602 37.937 35.0057 40.2218 36.616 37.5602 34.3003 36.616 32.9549 34.3003 30.9975 37.5602 34.3003 35.0057 32.026 34.3003 30.9975 32.026 29.0238 32.9549 29.3273 30.9975 27.7085 29.3273 25.792 27.7085 24.4759 30.9975 27.7085 29.0238 26.0305 27.7085 24.4759 26.0305 23.074 25.792 22.3808 24.4759 21.3264 22.3808 19.1045 21.3264 18.2726 24.4759 21.3264 23.074 20.1744 21.3264 18.2726 20.1744 17.3425 19.1045 15.9593 18.2726 15.3157 15.9593 12.9316 15.3157 12.4483 18.2726 15.3157 17.3425 14.5815 15.3157 12.4483 14.5815 11.8878 12.9316 10.0022 12.4483 9.65767 10.0022 7.14836 9.65767 6.92705 12.4483 9.65767 11.8878 9.25275 9.65767 6.92705 9.25275 6.66443 7.14836 4.34568 6.92705 4.23751 4.34568 1.56874 4.23751 1.5688 6.92705 4.23751 6.66443 4.1084 4.23751 1.5688 4.1084 1.56886 -1.5591 2.29047 -1.55239 1.04702 2.29047 6.65942 1.04702 5.40349 -1.55239 1.04702 -1.52763 -2.58851 1.04702 5.40349 -2.58851 3.87607 6.65942 11.4262 5.40349 10.059 11.4262 16.5066 10.059 13.9549 5.40349 10.059 3.87607 10.9827 10.059 13.9549 10.9827 10.9798 16.5066 22.4335 13.9549 17.0602 22.4335 31.4385 17.0602 21.7656 13.9549 17.0602 10.9798 21.6918 17.0602 21.7656 21.6918 19.5673 31.4385 47.4835 21.7656 37.3789 47.4835 64.9576 37.3789 64.5772 21.7656 37.3789 19.5673 35.9678 37.3789 64.5772 35.9678 49.2755 64.9576 89.2441 64.5772 70.4866 89.2441 89.2197 70.4866 71.5307 64.5772 70.4866 49.2755 55.6988 70.4866 71.5307 55.6988 57.5375 89.2197 74.7861 71.5307 65.6755 74.7861 65.3903 65.6755 59.6879 71.5307 65.6755 57.5375 55.8626 65.6755 59.6879 55.8626 52.7146 65.3903 59.5062 59.6879 54.7642 59.5062 54.5921 54.7642 50.5817 59.6879 54.7642 52.7146 49.3322 54.7642 50.5817 49.3322 46.0876 54.5921 50.3168 50.5817 46.9055 50.3168 46.7775 46.9055 43.6558 50.5817 46.9055 46.0876 43.0511 46.9055 43.6558 43.0511 40.2218 46.7775 43.71 43.6558 40.7139 43.71 40.819 40.7139 37.937 43.6558 40.7139 40.2218 37.5602 40.7139 37.937 37.5602 35.0057 40.819 37.937 37.937 35.2185 37.937 35.0057 35.2185 32.5032 37.937 35.2185 35.0057 32.5032 35.2185 32.5032 32.5032 30.017 35.0057 32.026 32.5032 29.775 32.026 29.0238 29.775 27.0401 32.5032 29.775 30.017 27.5319 29.775 27.0401 27.5319 25.0476 29.0238 26.0305 27.0401 24.3141 26.0305 23.074 24.3141 21.6139 27.0401 24.3141 25.0476 22.5714 24.3141 21.6139 22.5714 20.1133 23.074 20.1744 21.6139 18.9531 20.1744 17.3425 18.9531 16.3405 21.6139 18.9531 2